1
Lattice="20.0 0.0 0.0 0.0 20.0 0.0 0.0 0.0 20.0" Properties=species:S:1:pos:R:3 energy=-12.353708076955 pbc="T T T"
H        0.00000000       0.00000000       0.00000000
1
Lattice="20.0 0.0 0.0 0.0 20.0 0.0 0.0 0.0 20.0" Properties=species:S:1:pos:R:3 energy=-148.1794822322 pbc="T T T"
C        0.00000000       0.00000000       0.00000000
1
Lattice="20.0 0.0 0.0 0.0 20.0 0.0 0.0 0.0 20.0" Properties=species:S:1:pos:R:3 energy=-431.46315818255 pbc="T T T"
O        0.00000000       0.00000000       0.00000000
160
Lattice="13.43142 0.0 0.0 0.0 13.43142 0.0 0.0 0.0 13.43142" Properties=species:S:1:pos:R:3:forces:R:3 temperature=500 density=0.8121457274617471 energy=-24030.02535281 virial="-2.755521294292187 -10.366900251200988 18.002749205113986 -10.366900251200988 32.3601191717269 1.6243964389535412 18.002749205113986 1.6243964389535412 41.60083998725573" pbc="T T T"
C        3.34584731       4.44113932      -0.03978386       0.12992000      -0.04387000       2.52576000
C        2.88981031       3.55923228       1.12907203      -1.61462000       1.95808000      -0.41984000
O        3.90468840       3.76518967       2.06971467      -0.46231000      -0.75599000       1.58579000
C        4.88992335       4.51886694       1.54306869       2.11782000      -0.95469000       4.36393000
O        5.84575693       4.87559203       2.20252455      -0.16903000       0.08695000       0.14331000
O        4.76493056       4.66775424       0.31044041      -1.02804000       0.62943000      -6.00682000
H        2.90094495       5.37487820       0.19025607      -0.64144000       1.34536000      -0.81240000
H        3.03221022       3.94104726      -0.91795697       0.68314000       0.02750000      -1.70728000
H        2.71101124       2.58225765       0.76584614       0.28977000      -1.78427000       0.38417000
H        1.91331921       3.98774830       1.50443993       0.68501000      -0.53005000      -0.04203000
C        2.69062235      -0.73729094      -5.29505527      -0.54414000       1.86211000      -1.19515000
C        1.72826110      -1.94403687      -5.53527622       4.51259000       0.35451000      -2.68325000
O        1.98751437      -2.76364898      -4.46917069      -0.30350000      -1.31657000       2.43762000
C        3.12402741      -2.35764402      -3.84272926       0.95245000      -0.40903000       0.78202000
O        3.73337064      -2.88112018      -2.94506717      -0.64281000      -0.95631000       0.33822000
O        3.59239446      -1.24532097      -4.37058407       1.20779000       0.59872000      -0.07202000
H        2.15554144       0.07052839      -4.78334503      -0.32087000       0.27640000      -0.01032000
H        3.28447915      -0.19314382      -6.12087270      -0.99714000      -1.26360000       0.59699000
H        2.08614129      -2.51174270      -6.41722355      -0.24000000       0.18569000      -0.25076000
H        0.77788069      -1.65274966      -5.71262469      -3.54260000       0.77287000       0.08189000
C        2.99116380      -4.35511107      -0.04860831      -1.75724000      -2.06894000      -0.93858000
C        2.07234722      -4.65835224      -1.26241916      -0.24389000       2.02551000      -0.08638000
O        1.05168019      -5.61370228      -0.79512663       1.11100000       1.45289000      -3.01952000
C        1.36746630      -6.01197075       0.39029020      -0.34995000      -0.04788000       2.23443000
O        0.61663649      -6.77052362       0.99068811       1.50753000       0.13540000       0.48550000
O        2.51144721      -5.37701380       0.87634643      -0.36754000      -0.96242000       0.56431000
H        2.82112202      -3.41446844       0.33891502      -0.16072000       1.87401000       1.17612000
H        4.00860730      -4.52170097      -0.36438099       0.67523000      -0.20085000       0.40783000
H        2.87071083      -4.94503247      -1.90491114      -0.35854000      -1.71177000      -1.73454000
H        1.57833959      -3.77678099      -1.77406225       0.18679000      -0.84554000       0.90354000
C        3.60452303       2.45653956       4.87107907       1.05350000       4.12365000      -3.65968000
C        4.97682464       3.34171043       5.07670068      -2.50583000      -1.77354000       0.01786000
O        4.88631030       3.33242932       6.46274264       2.72070000       0.51481000       2.39193000
C        3.73490182       2.92463798       6.92505211      -0.33970000       0.55703000       2.80419000
O        3.31993810       3.05319010       8.03480976       0.23241000       0.49601000       2.57024000
O        2.99907491       2.32990813       6.06005523      -1.98968000      -0.94052000       0.10933000
H        3.78541739       1.51625957       4.58183344       0.96353000      -3.55901000      -2.19643000
H        2.94080941       3.05195441       4.23402682       0.06695000      -0.48393000      -0.50581000
H        4.89647789       4.36519807       4.88269725      -0.47003000       1.74555000      -1.46206000
H        5.91838061       3.00245963       4.66376511       0.23167000      -0.63478000       0.14327000
C       -3.14050776       0.09728378      -7.37813420      -0.10797000       1.80274000       2.77618000
C       -4.46477862      -0.01828016      -6.54400272       0.62299000      -3.53154000      -2.24975000
O       -5.06396769       1.13298057      -6.05809424       1.46610000       3.36295000       0.61615000
C       -5.98240819       1.04542114      -5.10935246      -0.74881000      -2.93454000       1.25128000
O       -6.63869424       0.01723251      -4.95494486      -0.41400000       0.18098000      -0.17708000
O       -5.99319362       2.03738524      -4.22791552       0.02763000       0.88785000      -1.27204000
C       -6.94847651       1.97543953      -3.13344283       0.55767000       1.77799000       0.45826000
H       -3.29308869       0.77767922      -8.15417479      -0.24881000       2.74260000      -0.82296000
H       -2.77209734      -0.56660445      -8.08210179      -0.34151000      -3.47824000      -0.86741000
H       -2.19211520       0.27715735      -6.84732448      -0.36487000       0.68447000       0.41405000
H       -4.41583452      -0.86196138      -5.81305142      -0.05741000       0.75812000      -0.00259000
H       -5.14859907      -0.34353543      -7.32728284      -0.44625000      -0.73657000      -0.15011000
H       -8.02313785       2.28853936      -3.35287194       1.18778000      -0.66759000      -0.30910000
H       -6.45121848       2.78462886      -2.54832988      -0.80865000      -0.31353000       0.30848000
H       -6.80531100       1.05209656      -2.58399030      -0.33820000      -0.48399000      -0.01022000
C        1.55850139       7.35524706       4.34104838      -0.25221000       0.80715000       0.35408000
C        2.14750945       5.95169054       4.29066712      -1.58723000       0.83709000       1.54728000
O        1.24708048       4.85822520       4.69773317      -0.60145000      -0.23159000      -1.34170000
C        0.70361837       4.78437926       5.90795783       1.85117000       1.03481000       3.34830000
O        1.08281422       5.41014911       6.90674509       0.25341000       0.66655000      -1.00898000
O       -0.18067946       3.82702793       6.06088798      -1.33414000      -1.88297000      -0.90871000
C       -0.34456965       3.20971987       7.39782467      -0.98592000       0.39810000      -1.40942000
H        0.48910516       7.37203634       4.02288490       0.71654000       0.04244000      -0.85924000
H        2.31133248       7.98694018       3.73714487      -1.45240000      -0.50724000       0.57527000
H        1.42704808       7.78115739       5.35536235       0.70283000      -0.27861000       0.01518000
H        3.00393708       5.95571996       4.94429374       0.78998000      -0.41127000       0.10606000
H        2.31626181       5.80621483       3.25291532       0.55413000      -0.88718000      -0.94715000
H       -1.33742022       2.67165718       7.39499064       1.16240000       0.17191000      -0.33022000
H       -0.35788019       3.94325001       8.15417479      -0.35555000       1.50005000       0.92735000
H        0.55321333       2.67721779       7.63460717       0.58134000      -1.14142000      -0.18173000
C       -2.08767247       5.29529704       0.56970711       0.21321000      -2.17008000      -2.67279000
C       -2.06212591       4.39631867       1.76910606      -0.09641000       1.25198000       0.52619000
O       -3.15486595       4.73634850       2.67067669      -1.39845000       4.46516000      -4.37651000
C       -3.48507741       4.06285680       3.67087425       2.79621000      -3.91469000       1.42576000
O       -2.75615425       3.13842589       3.95112082       1.11850000      -2.80461000       1.66447000
O       -4.52004891       4.36147757       4.35911364      -2.21197000       2.70670000      -1.68188000
C       -4.69464394       3.92008081       5.65469498      -1.15101000       3.15462000      -0.03608000
H       -2.98126485       4.99480931      -0.03720503       0.44781000       0.57364000       0.05916000
H       -1.13155684       5.16740306      -0.12163494      -1.67683000      -0.11224000       1.46579000
H       -2.09575819       6.33038942       0.78405914      -0.20593000       1.25004000       0.56739000
H       -1.19673952       4.62263810       2.28922436       2.07562000       0.86239000       1.62909000
H       -1.88321940       3.36115913       1.64804867      -0.92617000      -1.60984000      -0.62233000
H       -5.29909813       4.72107697       6.07621323      -0.19943000       0.27239000       0.50532000
H       -3.83060069       3.85154027       6.19173688       2.72247000      -0.50935000       1.38847000
H       -5.26717165       3.09529760       5.70471359      -1.75819000      -3.45115000       0.05978000
C       -2.07336801      -5.68448587      -3.98781546       0.69128000      -0.39715000       2.74691000
C       -2.12471633      -4.42664681      -3.09970311      -0.14706000      -1.23840000       0.26772000
O       -2.15131054      -3.26607811      -3.90760302      -0.85797000       2.14851000      -2.35759000
C       -1.71235831      -2.07780038      -3.44190882       0.21257000       0.47785000       2.33002000
O       -1.28741504      -1.96053065      -2.29216584      -0.08997000       0.25407000      -0.58716000
O       -1.83240834      -0.99587264      -4.29172820      -0.37708000      -2.62972000      -1.69615000
C       -1.82743871       0.29828498      -3.77797638       0.39502000      -0.21060000       5.08690000
H       -2.87542526      -5.87525232      -4.64313444      -1.19816000       0.51386000      -1.24526000
H       -2.19159137      -6.57821255      -3.27952296       0.67416000       0.93895000      -0.57023000
H       -1.11213501      -5.66619227      -4.45833153       0.66246000      -0.54481000      -0.71474000
H       -1.23933056      -4.29405184      -2.49253576       0.46807000      -0.59053000       0.52359000
H       -2.98828948      -4.57103458      -2.42653377      -0.16823000       0.86426000      -0.08698000
H       -1.72100814       1.10306880      -4.44808336      -0.47895000       0.50582000      -1.68233000
H       -0.97432864       0.45502965      -3.05811943       0.05430000      -0.37154000      -0.58342000
H       -2.64463317       0.39787895      -2.98725526       0.12138000       0.23659000      -1.33375000
C        6.48279575      -4.81960987       1.72886552      -0.74233000      -1.52985000      -0.66920000
C        7.09119878      -5.82468303       0.70535102       0.07061000       1.53779000       0.94758000
O        6.39592132      -5.66378805      -0.52285832      -1.35841000      -0.31250000      -0.12030000
C        6.61326856      -6.58474022      -1.50869768       0.33845000       2.33747000       0.74445000
O        7.59102221      -7.27116637      -1.50820072       0.70950000      -1.79533000      -0.77237000
O        5.69160452      -6.31409711      -2.43582831      -0.15454000       0.41180000      -1.46700000
C        5.74868805      -6.95981263      -3.75013305      -2.54687000      -2.52477000       1.38500000
H        5.37759135      -5.14297131       1.72452717       1.26568000       0.61861000       0.78094000
H        6.53809290      -3.77863453       1.41639697       0.11717000       0.24916000      -0.28115000
H        7.03286612      -4.92761192       2.69573972      -0.71825000      -0.10624000      -0.34513000
H        7.10123205      -6.80196658       1.13185233      -0.81075000      -1.25436000       0.08260000
H        8.12862823      -5.66718620       0.53995652       1.41019000       0.67975000      -0.37164000
H        6.65792803      -7.24752707      -4.19318187       2.04838000       0.75859000      -0.32645000
H        5.00054453      -6.60120714      -4.49607382       0.55537000       0.63809000       0.86905000
H        5.38221176      -7.98694018      -3.48702496      -0.19218000       0.26472000      -0.45006000
C       -2.67251680      -5.12528213       3.32383322      -1.77707000      -0.79425000      -0.81512000
C       -3.72725934      -5.61624082       4.34098122       0.18470000       0.41835000      -2.90557000
O       -4.30075412      -4.48749115       4.98183456      -0.44505000       1.54821000      -0.25109000
C       -5.54449018      -4.57569528       5.46570147      -0.60234000      -0.00538000       1.50291000
O       -6.12173231      -5.59706075       5.79072840       0.01628000       0.16308000      -0.44126000
O       -6.02473060      -3.29425723       5.70440466      -0.48630000      -0.69489000       0.83637000
C       -7.18206233      -3.18166163       6.61989025      -1.50321000       0.67966000      -0.21403000
H       -2.15701890      -5.88605119       2.73088975      -0.76585000      -0.77633000      -0.15528000
H       -1.84140739      -4.65519586       3.66273480       2.51257000       1.98942000       2.03230000
H       -3.14632357      -4.41470628       2.63962325      -0.19809000      -0.06234000      -0.20403000
H       -3.33083098      -6.25017698       5.08696229       0.30428000      -1.25728000       0.77409000
H       -4.44072294      -6.05526022       3.60558411      -0.20942000      -0.47794000       1.19715000
H       -8.12862823      -3.71651421       6.37158359       0.80222000      -0.38373000      -0.86672000
H       -7.52567835      -2.12575055       6.61067630       0.76585000      -0.12316000      -0.28883000
H       -7.13076774      -3.41269549       7.69704984       1.39196000      -0.28248000      -0.14620000
C       -0.59472985      -2.89416209       1.40459075      -2.63688000      -0.36541000      -0.26058000
C       -0.03799749      -1.53067149       1.23857840       1.47350000      -1.09888000       1.26870000
O        1.34559995      -1.81263729       0.83826836       0.29989000       0.49571000      -1.04229000
C        2.31043257      -0.89265217       0.85594410       0.88136000       3.08752000       1.49868000
O        2.41991208       0.16720775       1.47929631      -2.28697000       0.33572000       0.80203000
O        3.36543032      -1.17860710       0.16230528       0.87440000      -3.71361000      -2.76217000
C        4.28982094      -0.18867116      -0.34701416      -0.74913000      -0.46164000       1.17893000
H       -1.59974928      -2.73835762       1.89556288       0.65257000      -0.30565000      -0.09266000
H       -0.00431149      -3.56941330       2.03022629       0.15070000       0.05990000      -0.04128000
H       -0.88221596      -3.35348979       0.43140378       0.54670000       0.01489000       0.31624000
H       -0.02566744      -1.03146590       2.17820025       0.38863000       0.54679000       1.26015000
H       -0.62915458      -0.88515744       0.63999373      -0.13977000       0.57347000      -1.68843000
H        4.76898685       0.21772332       0.53573905       1.24994000      -0.20402000       0.26005000
H        3.65429987       0.67042933      -0.54892870      -0.02381000       0.30812000      -1.40169000
H        4.91619521      -0.73678054      -1.11260510      -0.67454000       1.00128000       0.64920000
C       -6.72071992       0.61840944       3.02146509       1.23884000       1.66988000       0.38888000
C       -5.66175990       0.72968875       1.84312661      -2.86467000       1.76139000       0.41048000
O       -5.71392754      -0.49852058       1.17402699       0.84895000      -2.68201000      -1.85419000
C       -5.29702969      -0.61596492      -0.14739640      -2.14770000       3.59786000      -1.71170000
O       -5.02517775       0.40173377      -0.82358781       0.77774000      -1.75906000       1.22627000
O       -5.69129560      -1.77171175      -0.76532231      -0.36165000       1.04485000       4.09473000
C       -5.29798333      -2.04126692      -2.04188476       2.60258000      -2.03790000      -1.34689000
H       -6.33757523       0.03032815       3.87855086      -0.25301000      -0.10443000      -0.36615000
H       -7.72819730       0.33604070       2.72523512      -0.03368000      -0.68098000      -0.47380000
H       -6.92849056       1.66066077       3.42146621       0.65387000      -0.76477000      -0.38565000
H       -4.69185020       1.05373519       2.13348705       1.32947000      -0.32017000       0.77954000
H       -5.97686102       1.61806974       1.22681247      -0.10576000      -0.88904000      -0.24052000
H       -5.86599808      -2.94751169      -2.26866086       0.48687000      -0.59251000      -0.07522000
H       -4.14537945      -2.16815354      -2.08728296      -1.50179000      -0.23842000       0.01501000
H       -5.53768045      -1.42641680      -2.86650679      -0.67723000       1.93671000      -0.56094000
160
Lattice="12.9841 0.0 0.0 0.0 12.9841 0.0 0.0 0.0 12.9841" Properties=species:S:1:pos:R:3:forces:R:3 temperature=500 density=0.8990093281910018 energy=-24031.58478042 virial="12.363449832732046 -11.145820892292985 -5.191321223314419 -11.145820892292985 7.622767310666933 -7.2491295711033255 -5.191321223314419 -7.2491295711033255 30.08181377650465" pbc="T T T"
C       -3.97356957       4.29488060      -2.73516558       1.29348000      -0.67730000       1.82283000
C       -2.95373344       4.06407524      -3.85416129      -0.71129000      -2.46239000      -0.50759000
O       -3.39125865       4.93236096      -4.92858259       1.88807000       0.81147000       0.75992000
C       -4.62342378       5.31652152      -4.59064542      -0.34928000       0.65112000      -2.66389000
O       -5.37672231       5.85098603      -5.34321683      -0.84789000       1.13695000      -1.36008000
O       -4.99775538       4.95982233      -3.41310439      -1.42819000      -0.61037000       3.02273000
H       -3.62795880       4.93094569      -1.82547358      -0.32949000      -0.81236000      -1.28054000
H       -4.29878232       3.26835765      -2.38043997       0.01132000       1.05869000      -0.01379000
H       -3.22415329       3.09699350      -4.34266208       0.43696000      -0.07498000       0.73669000
H       -1.91103230       3.93536385      -3.51062797       0.05936000       1.15455000      -0.57390000
C        3.66913138      -3.91813395       1.74363479      -2.15638000      -0.78860000       2.19038000
C        3.23186584      -4.60204545       3.16727643       0.44216000      -0.75076000      -2.64772000
O        4.26033641      -5.63303493       3.33430389      -2.75064000       1.81627000       3.55365000
C        4.98853667      -5.63887777       2.30737844       1.10450000      -3.25458000      -0.98042000
O        5.76655693      -6.53206700       2.15368566       2.89417000      -1.29309000      -0.63066000
O        4.60376585      -4.88666991       1.34104979       0.29670000       3.01279000      -3.13583000
H        3.95354809      -2.88610575       1.94843300       1.17579000       0.09694000      -0.09962000
H        2.86636343      -3.81256023       1.00899442      -0.17328000      -0.45217000      -0.05951000
H        2.31443531      -5.17360553       3.13341390      -0.67004000       0.35463000       0.21500000
H        3.36792623      -3.91403098       3.92731372      -0.32205000       1.32627000       1.88090000
C       -5.10239424      -0.16057436       1.03467696      -1.75339000      -0.26864000      -2.69760000
C       -5.57265236       0.98963512       1.90071643      -1.43793000       0.98525000       0.47640000
O       -4.33307332       1.26114563       2.62309981      -4.37587000       1.93989000       1.53008000
C       -3.38581832       0.55870582       2.18652243       3.81464000      -0.89725000      -1.80528000
O       -2.25882440       0.71508632       2.56211349       1.32350000      -0.66229000       0.46201000
O       -3.71021307      -0.23801154       1.10301227       0.34286000       0.43201000       0.43633000
H       -5.51026376      -0.31655236      -0.02612401       0.75418000       1.14868000       0.78450000
H       -5.52126130      -1.00770898       1.45527091      -0.66152000      -2.33665000       1.40891000
H       -6.41595669       0.62317188       2.62547590       1.48523000       0.76103000      -0.95170000
H       -5.91439388       1.96152097       1.39611535       0.53857000      -1.13885000       0.47085000
C       -3.96841488       6.87309438       2.23169413       0.04379000      -1.50240000      -2.30770000
C       -4.13141727       5.54715809       1.38654608       1.40647000       2.51226000      -4.37645000
O       -3.46899446       4.53474886       2.10160643      -0.44272000      -0.98231000      -4.63672000
C       -3.33873797       4.98103835       3.25812619       0.54600000      -2.70769000       7.77505000
O       -3.12785022       4.23615351       4.23233619       0.55052000       0.95868000      -1.09981000
O       -3.63260711       6.23936643       3.47001371      -0.28219000       2.86026000       0.40635000
H       -4.95876413       7.38508341       2.16581280       0.76680000       0.02699000       0.71412000
H       -3.09372800       7.41568694       1.75080202      -0.90556000       0.00026000       1.07090000
H       -3.60523662       5.78070310       0.34157272      -0.54138000      -0.76281000       1.80336000
H       -5.10896420       5.26479287       1.05072531      -1.08838000      -0.32347000       0.57813000
C       -1.73207245      -4.44048429      -4.33571559      -1.51580000       1.45793000       1.63128000
C       -2.54483816      -4.85443039      -3.07167450      -0.53587000      -1.35711000      -2.22739000
O       -4.00382252      -4.66510922      -3.22721103      -2.03577000       0.39065000       0.39515000
C       -4.78743893      -4.67244524      -2.05414954       2.03080000      -1.75865000      -0.05141000
O       -4.21967020      -4.62550772      -0.97389839      -0.92110000       0.34790000       0.45710000
O       -6.10349432      -4.99790469      -2.23635542       4.73831000       2.04998000      -6.63816000
C       -6.90297729      -5.34609930      -1.28556873      -0.18963000      -0.99652000       5.79747000
H       -0.79059536      -4.78352422      -4.02608377       1.84355000      -0.94995000       0.09883000
H       -1.54333557      -3.34350962      -4.48573389      -0.88877000      -0.66999000      -0.24614000
H       -2.10772843      -5.04627046      -5.13574390      -0.04429000       0.11326000      -0.95942000
H       -2.19405971      -4.36482594      -2.20351863       0.35023000       0.31802000       1.29341000
H       -2.39985770      -5.98650108      -3.12129974      -0.17688000       1.07024000       0.90768000
H       -7.87573308      -5.51621698      -1.60921040      -2.10943000       0.40001000      -0.90883000
H       -6.77786251      -4.61934027      -0.46244170      -0.82858000      -0.17596000       0.21862000
H       -6.64199688      -6.32098448      -0.84055169       0.35864000      -0.21468000       0.18143000
C        3.74433528      -4.73702815      -5.62547819      -0.48256000       1.98551000       2.82490000
C        3.10523191      -6.10391630      -5.56044082      -0.61209000       2.15656000      -4.87770000
O        1.67444901      -6.07185855      -5.38814182      -1.26488000      -0.94095000       1.75293000
C        0.85156869      -5.72127487      -6.40631598       0.77230000       0.51816000      -1.08439000
O        1.21643488      -4.95816036      -7.29416875      -0.57062000      -0.63489000       0.05980000
O       -0.36452212      -6.32754145      -6.29822336       0.51530000      -0.45468000       1.11161000
C       -1.23387253      -6.42431195      -7.45160095       0.84148000       0.67841000      -1.29997000
H        4.76910537      -4.81111543      -5.88536792       1.47105000      -0.58653000      -0.15332000
H        3.72476824      -4.46697186      -4.50694990       0.29971000       0.46146000      -1.16764000
H        3.45208916      -3.81092424      -6.18732616      -0.83278000      -1.20137000       0.09098000
H        3.73303911      -6.62198189      -4.88534553      -0.41207000      -1.35682000       1.32019000
H        3.20357348      -6.48190942      -6.59774057       0.34716000      -0.67223000       0.31908000
H       -1.11649627      -7.41568694      -7.93824502       0.38548000       0.45495000       0.06787000
H       -0.98408442      -5.54500273      -8.06912476       0.07386000      -0.49571000      -0.50512000
H       -2.30746284      -6.35105566      -7.31772190      -0.29652000       0.07562000       1.36067000
C        0.01086120       1.36843325       5.33575097       0.81341000       1.13926000      -0.19344000
C        1.12401406       1.60402975       4.26247228      -3.46337000      -0.26874000      -1.36296000
O        2.25178701       2.09251756       4.88678677       2.42680000       1.02075000       1.58171000
C        3.15698653       2.94892282       4.30518997       0.00952000      -0.85889000      -2.90657000
O        3.17577452       3.21281167       3.11204207      -0.82891000       0.07293000      -0.16850000
O        4.12353592       3.31674939       5.10506246       0.47933000       0.23107000       2.30629000
C        5.37698198       3.87492287       4.62345623      -0.94983000       2.99185000       0.48756000
H       -0.01722341       2.22112507       6.06101684       0.42898000      -0.62319000      -0.20188000
H        0.11855132       0.42111332       5.80220476       0.08596000      -0.94473000       0.94637000
H       -0.96963312       1.42813414       4.89218815      -0.51490000      -0.24028000      -0.71238000
H        0.58964044       2.34252640       3.65251822       0.71271000       0.57574000      -0.43702000
H        1.21013759       0.72686290       3.52723463       0.62939000       0.66563000       1.18439000
H        6.04802624       3.13582894       4.46455681       1.97256000      -3.07077000      -0.68238000
H        5.89746261       4.50378178       5.38901176      -1.06381000      -0.33259000       0.19551000
H        5.38100705       4.51438979       3.72805972      -0.92789000      -0.17826000      -0.08185000
C        6.74476604      -1.43039338      -4.24876107       1.31608000       1.24927000       1.27170000
C        5.57569066      -1.63120547      -3.32843508       1.81725000      -0.58787000       1.24460000
O        5.23193661      -0.37787626      -2.56133445       3.39524000      -0.14685000      -1.06600000
C        4.05987489      -0.18041407      -2.06243340      -4.40915000      -2.87367000      -0.59494000
O        3.13330354      -0.99520530      -2.20223320       0.19862000      -0.31119000      -0.02170000
O        3.82173351       0.94668372      -1.45068753       0.96146000       2.19786000       0.59189000
C        2.46324608       1.20589829      -0.91891072       0.15362000      -0.89534000      -3.10590000
H        7.00329245      -2.24862539      -4.91183310      -0.26841000      -0.71820000       0.19384000
H        7.67328500      -1.13764087      -3.65502415      -0.88381000      -0.37769000      -0.64087000
H        6.51588232      -0.62214613      -4.86071470      -0.14605000       1.86114000      -1.58107000
H        6.07056664      -2.42096335      -2.73520453      -1.11638000       0.24746000       1.30784000
H        4.77206576      -2.08724601      -3.82242815      -1.82202000      -0.13141000      -0.58100000
H        1.65229814       1.10166193      -1.72861219       1.22688000       0.15221000       0.75383000
H        2.53915113       2.20119447      -0.58486879      -0.02909000       1.21793000       0.71303000
H        2.27535317       0.46463602      -0.20547339      -0.44853000      -1.03122000       1.51689000
C       -1.33761549      -0.48130760      -1.99978511       1.15052000       0.27243000      -3.15485000
C       -0.82747020       0.53916475      -3.11371703       0.24847000      -2.12147000       0.49699000
O       -1.98913166       0.89469538      -4.00172558       0.88032000       2.19033000       2.01520000
C       -2.42268375      -0.00768659      -4.82680022       0.38855000      -2.31508000      -1.69756000
O       -1.82059805      -1.02327692      -5.07892548       1.09955000      -1.65340000      -0.29448000
O       -3.56768661       0.26392780      -5.42673056      -1.83834000       1.70217000       0.96644000
C       -4.06658766      -0.46232485      -6.57256440      -1.33041000      -1.73731000       1.65727000
H       -2.08618781      -0.07729435      -1.44352030      -2.05548000       1.80342000       2.09239000
H       -0.59122451      -0.90529040      -1.37292575       1.10420000      -0.14395000       0.54909000
H       -1.86100456      -1.29235941      -2.47774282       0.07360000      -0.75978000      -0.70834000
H        0.06288848       0.07633352      -3.65615376      -1.34862000       0.32951000      -0.04334000
H       -0.40403274       1.43848247      -2.65019764      -0.74240000       0.46368000      -0.22466000
H       -3.43624856      -0.16766368      -7.31255424       1.96991000       0.50789000      -2.79208000