160
Lattice="13.52651 0.0 0.0 0.0 13.52651 0.0 0.0 0.0 13.52651" Properties=species:S:1:pos:R:3:momenta:R:3:forces:R:3 temperature=500 density=0.795137945301616 energy=-24099.876780871888 virial="-2.277890763975293 5.124713570537074 -2.250503060369476 5.124713570537074 19.077814008311 -1.142575449865462 -2.250503060369476 -1.142575449865462 -2.6609015428282152" free_energy=-24099.876780871888 pbc="T T T"
C        8.09402320       9.19060173       4.09102077      -0.59925907      -0.04557583      -0.72217126      -0.00213366       0.04662308       0.05619123
C        9.39895724       8.79636171       3.32298353       0.69044712       0.13586632       0.03860754      -0.10470913       0.04573391       0.03244138
O       10.37621716       9.74287135       3.80318170       0.90342413      -0.57694083       0.38394161      -0.02386706      -0.02571548      -0.00028631
C        9.81739221      10.58520062       4.70800418       0.15442748       0.29013731       0.24800992       0.03475659      -0.02577929       0.00270799
O       10.46110258      11.41701348       5.31025152       0.43514820       0.26575319      -0.27472965      -0.04809100       0.01743412       0.04117771
O        8.48587699      10.33813322       4.85741296       0.44481956       0.75631275      -0.43253308       0.02204066       0.03762819       0.00084768
H        7.67791041       8.41748330       4.76676984       0.09469890       0.09374441       0.25362019       0.04062646      -0.02180194      -0.03126995
H        7.29523884       9.52111403       3.40855280       0.07748746      -0.07945997      -0.18536617       0.05370669      -0.01219152      -0.02557849
H        9.33110534       8.93444452       2.23272569      -0.08919856      -0.03097218      -0.38295828       0.04340343      -0.08625838       0.06840820
H        9.75944745       7.79327655       3.57992149       0.11425371      -0.06302050       0.04636547      -0.01913588       0.09366223      -0.07793927
C        5.35576048      10.89130953      -0.77640077      -0.66661373      -0.06414716      -0.07459652      -0.13423777      -0.12108849      -0.06830614
C        5.27037531      12.40018498      -0.86182570      -0.25758324      -0.00771866      -0.95367943      -0.00281945      -0.16084693       0.04461872
O        5.79645535      12.98509299       0.36524378       0.50551999      -0.31414300       0.01203567      -0.04071777      -0.01370487       0.09866416
C        6.17159960      11.99725952       1.21240752      -0.39026326      -0.97433128      -0.02616976       0.04051931      -0.00202290       0.00266238
O        6.64508635      12.12016051       2.30008984      -0.62751580       0.49257491       0.77318595      -0.05474835      -0.04019843       0.06083462
O        5.94572841      10.78217545       0.56382998      -1.15481774       0.26973053       0.30723450      -0.05721698      -0.03836364      -0.07699503
H        6.04121617      10.42335086      -1.48482408      -0.09230839       0.03527287       0.20132532       0.03627564      -0.05190411      -0.03738549
H        4.42309788      10.09336860      -0.69164608       0.07258731      -0.02324010      -0.02587524       0.02871843      -0.05608805      -0.09174893
H        4.24004426      12.63219722      -1.04697309       0.11551255       0.30627421       0.08067865       0.15739373       0.24494203      -0.06111909
H        5.88311557      12.75608398      -1.68153560      -0.08237010      -0.14094469      -0.04417596      -0.02018115      -0.00955043       0.03144783
C        1.05449381       1.89710996      12.93763533      -0.02824442      -0.67552086      -0.27016420      -0.02463777      -0.03321450      -0.00620550
C        1.69985666       2.38522209      14.18232894      -0.06186905       0.48240976      -1.03114556      -0.00693980       0.01123532      -0.01591666
O        1.89205966       3.27648043      12.93898899       0.01290844      -1.62881749       0.68399741      -0.19487450       0.10133983      -0.00747501
C        1.93718630       2.98937003      11.52439475       0.07906662       0.89711836      -0.35195797       0.08252940       0.23191268       0.07766151
O        2.30295139       3.76170586      10.67768256      -0.22150504       0.84827802      -0.73374811       0.03159992       0.03310567       0.14997960
O        1.47473218       1.74394312      11.44809452       0.08740100      -0.27823774      -0.20425506      -0.10729557      -0.03980275       0.01677772
H        0.02145919       1.73379896      12.99247302       0.07538057       0.06274638      -0.23253279       0.08548933       0.05530877       0.15294877
H        1.70485135       1.28571391      13.94426320      -0.03456370      -0.08005082      -0.07051588      -0.15208960      -0.04262032       0.03266045
H        2.86262240       2.17677286      14.58632570      -0.10257375      -0.03011151       0.06318368      -0.10030532       0.01701656       0.14949409
H        1.05210207       2.67472122      14.92462592      -0.10203584      -0.08358319      -0.25201277       0.14058436       0.13356176      -0.04411563
C        3.31640457       3.25607138       3.03675871       0.52523238       0.72032819      -0.17746142       0.05092626       0.00681722      -0.02415354
C        2.33391009       1.95890451       3.56831914      -0.89949592       0.80885034       0.02637692      -0.13264026      -0.06524200       0.05641947
O        2.59971769       0.87289267       2.66919645      -0.14855161      -0.55046783       0.74985119      -0.05056702      -0.13280729      -0.03505340
C        3.02685338       2.16428032       2.03863257       0.74563471      -0.82919658       0.24484664      -0.06362704      -0.06876407      -0.11926572
O        3.45501838       0.82211320      -0.32493669       0.02994271       0.76155621       0.23862160       0.04177808       0.04137933       0.00260651
O        4.43280895       2.57936614       2.23294844       1.05851818      -1.25307654      -0.30264139       0.03917810      -0.02633384       0.00160318
H        3.89614212       3.45470035       3.91027421      -0.04475796      -0.34836068      -0.05078746       0.09252005       0.01888134      -0.05117173
H        3.00560835       4.13569331       2.55977794       0.05486448       0.07397481       0.13545389       0.07144073      -0.11469132      -0.14614809
H        1.32213439       2.16869743       3.79017387       0.34517222       0.32208661      -0.21382026      -0.21330958      -0.02311580       0.02492341
H        2.83210941       1.67878604       4.45554278       0.02501240       0.11017591      -0.13309075       0.10135898      -0.15533972       0.06667569
C        8.64691892       2.96389582      -0.05175933       0.09062082      -0.29941960       0.89097341      -0.02465434      -0.03935374       0.01620643
C        8.78902203       4.29202542       0.71720549       0.90744620      -0.28966369       1.10667679       0.01916514       0.03160229       0.01930295
O        7.41477289       4.67265499       1.05321618      -0.39667970       0.73413869       0.48690373       0.05399021       0.04345768       0.04709955
C        7.18714861       5.89971692       1.59052558      -0.65387689       0.80604570      -0.23056605      -0.05860734       0.04854309      -0.05431300
O        8.02645944       6.69924876       1.98591631      -0.28660089      -0.20645789       0.79741441       0.07059130      -0.08622431      -0.09360076
O        5.83184724       6.04661709       1.70453580      -0.06622487       0.02355655       0.14466076      -0.08234400       0.01499562      -0.02012047
C        5.45300258       7.43135939       1.89442628      -0.39651409      -0.84774662      -0.35383204       0.00689445       0.01425932       0.01877578
H        9.64120764       2.59068174      -0.35517150      -0.13316993      -0.04012618      -0.04249469       0.01296659      -0.02577629      -0.00160093
H        8.07451156       3.17148255      -0.97250621      -0.00673406       0.11958818       0.11732973      -0.02073418      -0.03800447      -0.00091982
H        8.14519084       2.15707915       0.50884886       0.20549202      -0.01736826       0.34457310      -0.00789553      -0.09471167       0.00522439
H        9.23805905       5.02230802       0.04560695       0.06381621       0.13272621      -0.14437743      -0.00543919      -0.00475407      -0.03682370
H        9.40798840       4.28501960       1.60162580       0.08474225       0.19411214      -0.03324129       0.05742135       0.04431929      -0.07136908
H        6.25861480       8.00426577       1.40523936      -0.14919361       0.05422250      -0.05036693       0.08383309       0.00803491       0.02695306
H        5.47826295       7.65253803       2.97657231      -0.12693952       0.04306923       0.02250547       0.02587577      -0.04051746       0.01025644
H        4.44181099       7.61534071       1.50036627       0.25846720      -0.12046920      -0.13220040      -0.00341986      -0.04591451      -0.01472567
C        3.24056618       9.76821779       9.53754398       0.72364720      -0.50898506       0.27050569       0.00006774       0.02456920      -0.00660971
C        3.27505986       9.42948584      11.06792268      -0.43789449       0.55558759       0.16476526      -0.04121370      -0.04141380       0.02069972
O        2.60694419      10.53267436      11.68108003      -0.93607545      -0.19530061      -0.23559318       0.09195237       0.07546214      -0.04526306
C        3.31997641      10.34399345      12.90093448       1.39288406      -0.18412905       0.32518892      -0.07955317      -0.00223730       0.07025451
O        4.22305048       7.91955145      12.91907465      -0.15784980      -0.37594992      -0.79038050      -0.00545454      -0.10104922       0.04757464
O        2.75138091      11.60602911      13.89927402      -0.14786342      -0.32661250       0.17984993       0.13650077      -0.02466115      -0.04252864
C        2.60964950      10.23159224      14.23706802      -0.14519839      -0.49612712       0.69810544       0.01862007      -0.03683724       0.08647769
H        2.29479500       9.60347269       8.96997086       0.10621811       0.03510025      -0.14965970      -0.00438063       0.08532671       0.02105833
H        4.07522026       9.30011009       8.98647651      -0.07617580      -0.21631430      -0.11080537       0.02307504       0.06297442       0.04673669
H        3.43855914      10.85246364       9.54182570       0.30357033      -0.07138388      -0.28478484      -0.01429901       0.02898237       0.05465478
H        4.31222700       9.14719566      11.32105097      -0.18206461      -0.16680117       0.02609039       0.06753861       0.13885616       0.00214689
H        2.70661750       8.60388296      11.41307157      -0.25404320       0.05182197       0.21300257      -0.05836259      -0.10124917      -0.11847903
H        1.61702697       9.86300540      14.13522497      -0.06073062      -0.00043853       0.05894784      -0.01105612       0.08586222       0.00767487
H        3.00964145      10.18448549      15.20804560       0.02537040       0.24627637      -0.13006866       0.06804668       0.02628694       0.08821795
H        3.44109591       9.50474495      13.80591659       0.00165447       0.07826091      -0.00065534       0.08189388       0.03902115      -0.11651831
C        5.30446000      10.99250737       6.91244966       0.04880395       1.53810185      -0.91326559      -0.03526268       0.00132443      -0.03674912
C        4.01324238      11.75045873       7.15133589      -0.56985816       0.36703079      -0.81329487      -0.00827291      -0.03367401       0.04381379
O        2.84956049      10.87847833       7.01071806      -0.14435037      -0.74320123      -0.33550127       0.01070784      -0.04493303      -0.10050551
C        1.77033655      11.49060041       6.43257989       0.32127463      -0.17794718       0.62462002       0.01665627      -0.01043031      -0.04140446
O        1.63873047      12.66943655       6.13924962      -0.00211498       0.48672925      -0.05907443      -0.02925346      -0.04460966       0.04064826
O        0.85406179      10.49428428       6.28158261       1.31296156      -2.29659150      -0.31849266      -0.01923389       0.02895099      -0.00224178
C       -0.45700213      10.92553543       5.86119868       0.42649656       1.06795641       0.33041540       0.00376290      -0.01485588       0.00271277
H        6.07602888      11.76545240       6.78735358      -0.12200612       0.27752581      -0.41335773      -0.00456946      -0.07524705       0.01911039
H        5.27673495      10.36107356       6.00996058      -0.24065834       0.12854723      -0.08201630       0.04549643       0.03113372      -0.01169284
H        5.57185476      10.33378789       7.74745261      -0.00281812      -0.00523587      -0.03559898       0.02872364      -0.01844382      -0.06859711
H        3.89185671      12.53308309       6.38512722      -0.13659812       0.10659103       0.10158780      -0.03625197       0.01331744       0.11769123
H        3.99228134      12.14614325       8.17951462      -0.05280964      -0.17177348      -0.09800563       0.00863562      -0.01987617       0.03303152
H       -0.42210430      11.34820776       4.83543778      -0.04833082       0.13163032      -0.36800742      -0.02672886      -0.01216683       0.04014025
H       -0.83503161      11.65196403       6.60054270       0.13628196      -0.06904233       0.09078755       0.02862356      -0.00977937      -0.02553118
H       -1.07847239      10.01397775       5.88324719       0.08233803       0.16214034       0.16127901      -0.01856271       0.01121296       0.00239555
C       10.49576999       9.31532410      13.32236261       0.10674037      -0.04890350       0.08135531       0.03397990      -0.02216093      -0.05281721
C       10.92793580      10.12290463      12.12736661       1.48015598       0.22584218       0.27925048      -0.06347215       0.06705067      -0.05405115
O       12.03640232       9.27469449      11.97482922      -0.28760877      -0.46794326      -0.26432505       0.05804604      -0.06983770      -0.01914061
C       10.48665769      10.50135882      10.13535621      -0.31424761       0.18613374      -0.07060418      -0.03030745       0.00276485       0.00788646
O        8.27751786      11.12182550      10.27246528      -0.22659461      -0.56078799       0.66997441       0.07614458      -0.03828931      -0.00172131
O       10.94806397      11.84364905      10.18216149      -0.33019216      -0.82922456       0.41947179       0.00226872       0.09408664      -0.10054447
C       10.31290646      11.23455714       8.81912145       0.21311989       0.56160634       0.18930360       0.03700712      -0.05413237       0.00268970
H        9.78807064       9.94932097      13.88377108      -0.09357471      -0.03813418       0.10559418      -0.03376833       0.01652222       0.02809031
H       11.29303635       9.02560363      14.01642372       0.08081941      -0.33903170      -0.06537674      -0.05448968       0.00575273       0.01398865
H       10.02138500       8.38312765      13.01482037       0.02258242      -0.04219961      -0.17045282       0.05214870      -0.03917695       0.02192233
H       11.32316396      11.05217171      12.39627694      -0.11465289       0.10245688       0.08358069       0.02087961       0.04877224       0.05569368
H        9.98784693      10.44374362      11.18809231      -0.15256709       0.08814580       0.21072008      -0.03175400       0.00697776       0.10269713
H        9.29283823      11.00020036       8.43991601      -0.09347622      -0.11190433      -0.05565069       0.11334094       0.04685188      -0.03332473
H       11.12319405      11.44662818       8.08487443      -0.29818372       0.16972657      -0.45693117      -0.11091496      -0.10191259       0.13374692
H        9.67944494      12.16396093       8.93029688       0.04924862      -0.12549579      -0.05356250      -0.01604306      -0.06808505      -0.02435020
C        2.44653908       6.09433949       7.84138142       0.24595604      -0.01907582       0.90905528      -0.01943337       0.00047088       0.00256763
C        3.33274018       6.82082219       6.84936242      -1.09815839       0.02986944      -0.97193293      -0.04347044      -0.00624073       0.02405474
O        4.40567390       7.41104245       7.66088549       0.09281048       0.22825653      -0.77542001      -0.01696766      -0.01614811      -0.09799535
C        5.50618306       7.67608613       6.93178066      -0.52952467       0.05310536       0.30907676       0.02569819       0.00818918      -0.00401220
O        5.64872582       7.62853350       5.72405489       0.28709388       0.02012224       0.63921320      -0.07049726      -0.03863981      -0.03917288
O        6.40362163       8.08823752       7.83836004       0.91862431       1.08086753       1.37127856      -0.01688268       0.02527587       0.14129152
C        7.73015203       8.37450835       7.37352014       0.13473936       0.50039355      -0.32345693       0.03309779       0.02168649      -0.03491657
H        3.13708475       5.52957518       8.48701938      -0.10653063       0.06418379      -0.02542227      -0.03012888       0.02996597       0.00643421
H        1.79218566       5.39351035       7.29076612      -0.10574280       0.05351386       0.22627113       0.02405369       0.00198877      -0.00733817
H        1.83945123       6.71755538       8.52302502       0.20491856      -0.25235770       0.10289967       0.02136764       0.04855251      -0.02126009
H        2.84276640       7.62946062       6.29010021      -0.02128510      -0.07014435      -0.12183708       0.01143812      -0.01653270       0.00650739
H        3.78991823       6.09737136       6.16320328      -0.39562996      -0.20838281       0.08880167       0.00067509       0.03759010       0.05588497
H        7.75869550       9.26320625       6.73828548      -0.08526407       0.40174181      -0.18717642       0.00486959       0.05663084      -0.05231903
H        8.19409903       7.51832236       6.86061910      -0.10365364       0.22835455      -0.06461501       0.01362021      -0.06592824      -0.02177605
H        8.28914154       8.58490092       8.29473343       0.00877067      -0.11890097       0.16204692       0.00286598       0.01757437       0.02874010
C        9.41215149       3.43747518       8.54958455       0.30536880      -0.03544204       0.50270527       0.06475736       0.02422035      -0.00792123
C       10.56909277       4.40932257       8.82148280      -0.11917892      -0.61700091       0.19078753      -0.04439671       0.04087070      -0.01916018
O       10.01932540       5.72729005       9.12422990      -0.27815393      -0.03592248      -0.27887861      -0.09890049       0.00947475      -0.02458057
C       10.80253758       6.77593343       8.84871054       0.44722223       0.55130466       0.41865960       0.04252456      -0.10148079       0.00622887
O       11.86296408       6.79958947       8.26068371       0.51942419      -1.15480013      -0.17332917       0.03009695       0.07759972       0.00302406
O       10.17105687       7.88026212       9.36722652       0.88900957      -0.13757146      -0.94095161      -0.06963182      -0.17065475       0.00162670
C       10.84696960       9.36255229       9.29165998      -0.66027495      -0.28192646      -1.02549783       0.08403891       0.07696822      -0.09248049
H        9.88462395       2.48351458       8.26074120       0.33333726       0.13084955       0.01886425      -0.02855647       0.00772461       0.00727061
H        8.75624516       3.76894917       7.72269008       0.20927651       0.10035674      -0.24652483      -0.00234350      -0.01581273       0.07731215
H        8.75054915       3.23751613       9.39752194       0.22842750       0.06674916      -0.01537502       0.02183591       0.01594681      -0.07605808
H       11.23795996       4.43177727       7.94410280       0.16598941       0.13027721       0.10388296      -0.05465672      -0.06153107      -0.02146905
H       11.15224397       4.09442905       9.70734665      -0.23051956       0.08222626       0.08573804       0.00243405      -0.04834639      -0.05871500
H       11.31664513       9.15614582       8.33944544       0.07254565       0.22389865      -0.21895143       0.05438774       0.04552530      -0.04921776
H       11.75801085       9.13705204       9.80509941       0.10619853      -0.00145785       0.03735008       0.01924091       0.00914749       0.08586425
H        9.80958449       9.62059210      10.18100328      -0.19774773       0.19366262       0.13872753      -0.02906431      -0.00175597       0.04755782
C       12.51857325       4.41814958       3.88768365      -0.34531021       0.55387247       0.31331741      -0.01374550       0.03607136      -0.07808007
C       11.97058798       4.47891073       2.44718465      -0.07793112      -0.48814992      -1.31307870      -0.00918775       0.09808353       0.07000375
O       12.72820131       3.82225721       1.52836275      -0.62073932       0.09692560       0.20418279       0.19066536       0.07420693       0.08123951
C       13.09487299       5.39344986       2.10069054       1.02960602      -0.80780292      -0.52136761      -0.05184362       0.06936034      -0.03449131
O       10.99552975       5.68806888       0.47320259      -0.66452022       0.38391545       0.42147589       0.06845567       0.04437628       0.05868622
O       14.60498239       5.43832814       2.37503394       0.43601884       0.19345684       0.94416954      -0.06410042       0.16217002       0.01668805
C       14.23348054       5.90943321       1.02516745      -0.47560627      -0.34398881       0.06132123       0.07529997       0.08111231      -0.03670709
H       13.52200485       4.58993208       4.22866856      -0.26428508       0.21832104      -0.22518527      -0.00926253       0.11497372      -0.21230917
H       12.40072541       3.34284799       4.12001353       0.09431941       0.08498705       0.36840613      -0.00540862      -0.05540143      -0.00826554
H       11.80348607       4.97020774       4.50427051      -0.06061332       0.04556739      -0.34268337      -0.06729107      -0.00059872      -0.07493284
H       12.10668781       5.86707218       2.05539935       0.13567478      -0.11526928       0.03592323      -0.13848273      -0.02902859       0.20430536
H       11.02406935       4.49795801       2.13831835       0.04279993       0.13722280      -0.23923292      -0.13584190       0.03187497       0.00473970
H       14.47252108       6.94854993       0.86300616      -0.02335776      -0.05689362      -0.06685798      -0.06780024      -0.10288545      -0.00196596
H       12.97636192       5.91360312       1.03805119      -0.24929738      -0.07285718      -0.00240942      -0.00164768      -0.11460597       0.01078661
H       14.50627570       5.12360467       0.36397849       0.36260908       0.17688959      -0.01513226      -0.00131200      -0.05579736      -0.03690624
C        5.47522531       3.85450208       9.65384085      -0.56851634       0.77446038       0.08795499      -0.00441302       0.04446540       0.02258480
C        5.60014609       2.42796170       9.09218828      -0.37457008      -0.65167147      -0.11779127      -0.09307757       0.07984443       0.07323092
O        6.97359597       2.10365863       8.72126956      -0.07797149      -0.56395893      -0.06612631      -0.03591664      -0.03855660      -0.00583695
C        6.19881886       1.96871203       7.43814208       1.03610096       0.67794881      -0.20805305       0.06976796       0.02965729       0.15243233
O        4.18397505       2.10952485       5.98824512      -0.23017484       0.25149427       0.28229345       0.05876334       0.08976009      -0.00937817
O        6.37146793       0.54141701       6.78825913      -1.15704293      -0.12622912       0.57535360       0.01381810       0.08995425      -0.01540933
C        6.68142502       1.79094373       6.03345352      -0.63461799      -0.01088583       0.34843549       0.14891231      -0.11340791       0.07745014
H        5.90796758       3.92092850      10.66018335      -0.11209653      -0.14210552      -0.18091163      -0.00839461      -0.03770179      -0.06406620
H        4.42673081       4.12950465       9.65587524      -0.22554619      -0.04280786       0.20231855       0.06623929      -0.03780339      -0.06158974
H        6.01421239       4.58366515       9.04897383       0.04326799       0.09817199      -0.06173089      -0.05426784      -0.05359530       0.00139721
H        5.11862955       2.26639315       7.79077318       0.11374258      -0.07181456      -0.07266946      -0.11026074      -0.02211172      -0.09680474
H        5.20400890       1.64352432       9.67811668      -0.01060977       0.29661048       0.07091777       0.11866131       0.10927681      -0.16575171
H        6.01682865       2.76682860       6.66109593       0.20115372       0.31559969       0.05078412       0.03193946      -0.10327771       0.04647381
H        6.06123644       1.84227424       5.17899590      -0.22748378       0.14640969       0.30910195      -0.05937097       0.05036781      -0.05008192
H        7.75319414       1.92567388       5.91294844       0.02273495      -0.10340345      -0.05255175       0.09777360      -0.00920781      -0.04506186
160
Lattice="13.52651 0.0 0.0 0.0 13.52651 0.0 0.0 0.0 13.52651" Properties=species:S:1:pos:R:3:momenta:R:3:forces:R:3 temperature=500 density=0.795137945301616 energy=-24097.021478102553 virial="-2.277890763975293 5.124713570537074 -2.250503060369476 5.124713570537074 19.077814008311 -1.142575449865462 -2.250503060369476 -1.142575449865462 -2.6609015428282152" free_energy=-24097.021478102553 pbc="T T T"
C        8.09190417       9.20122128       4.04214876       0.36186928       0.37727314      -0.64868359       0.52330620       0.31232564       0.22173672
C        9.42781091       8.80123324       3.30109471       0.09730732      -0.00605964       0.34341054       0.06016449      -0.50525065       1.33625558
O       10.40501481       9.71569188       3.84637528       0.22713440      -0.27012190       0.75782473      -0.36504476      -0.21084515      -0.23655300
C        9.81807352      10.58558421       4.70974724       0.06294704       0.10623765      -0.14279949       0.63023229       0.29456297      -0.25027883
O       10.48557991      11.42982196       5.27974086       0.05667800       0.18117800      -0.58504743      -0.42435454      -0.07619242       0.18565791
O        8.48190877      10.38536491       4.81397656      -0.65780019       0.71606391      -1.05200106      -0.46094816      -0.72852097      -0.62973071
H        7.68088325       8.44031735       4.73508418      -0.16015635      -0.21788712      -0.05691994       0.03163238       0.07030399      -0.08210020
H        7.32601110       9.46599368       3.29401338      -0.06160929       0.09503862       0.12429509       0.04708800       0.33286268       0.52490056
H        9.39371151       8.91957947       2.22978861       0.14795288       0.15041379      -0.22341911      -0.07808165       0.10776450      -0.57366002
H        9.76760249       7.78307253       3.57402454      -0.07453957      -0.09318866       0.05646735      -0.21507378       0.32038874      -0.20726780
C        5.29992683      10.89432325      -0.78543887      -0.41426438      -0.39139891      -0.21316212       0.63595238      -0.43569465       0.92924494
C        5.26582120      12.39217600      -0.89584253       0.02167433      -0.40113712       0.05338504       0.00723497      -0.31789884       1.15910144
O        5.81787962      12.96441407       0.35558753       0.39925425      -0.32498971      -0.62527403      -0.29899896       0.20893137      -0.29450767
C        6.13768083      11.97346489       1.24370302      -0.50204186       0.38287719       0.64225476      -0.00482096       1.06544063      -0.96689797
O        6.61839389      12.12413783       2.33186774      -0.46782809      -0.48826188      -0.24345376      -0.43091069      -0.45877547      -0.53726810
O        5.88554027      10.78909415       0.57879387      -0.90277225      -0.43181705       0.30919809       0.21772660      -0.86840654       0.31824467
H        5.98470224      10.36644488      -1.42218422      -0.14956108       0.05008004       0.04933706       0.46704541       0.05236874      -0.45983911
H        4.41712085      10.03579478      -0.71988008      -0.00073269       0.01538765       0.04683461      -0.21949270       0.26779766       0.19819903
H        4.25723210      12.67709906      -1.08687589      -0.02855337      -0.17613313      -0.13877349      -0.25751683       0.16368962       0.20352803
H        5.89371008      12.66982521      -1.73080292       0.09690421      -0.02635303       0.06777808       0.23536764       0.39758223       0.09317045
C        1.03956762       1.83177713      12.90352972      -0.62561265      -0.68157279      -0.24808081       0.66945036       0.50469570       0.42881615
C        1.69006947       2.38322598      14.13221724      -0.26921703      -0.91002476      -0.15582080      -0.51478300      -1.28073337       1.30402600
O        1.90656572       3.22006297      12.95395221       0.54946843      -0.09499816      -0.45312547       0.27213261       2.08451151      -1.70748056
C        1.92594920       3.03009067      11.50814536      -0.40454115      -0.00180938      -0.32847746       0.09446459      -0.65567052       0.24670107
O        2.26650655       3.82663314      10.66362864      -0.73337481       1.10557324       0.49163229      -0.56191454      -0.54887523       1.16943226
O        1.48316480       1.76016500      11.43294941       0.27340821       0.76139965      -0.15834105      -0.06693127       0.51923312      -0.20123748
H        0.01077523       1.74238345      12.97643620       0.09959897      -0.04422150       0.06516130      -0.56110358      -0.32577496      -0.14994889