160
Lattice="13.52651 0.0 0.0 0.0 13.52651 0.0 0.0 0.0 13.52651" Properties=species:S:1:pos:R:3:momenta:R:3:forces:R:3 temperature=500 density=0.795137945301616 energy=-24045.281545314436 virial="-2.277890763975293 5.124713570537074 -2.250503060369476 5.124713570537074 19.077814008311 -1.142575449865462 -2.250503060369476 -1.142575449865462 -2.6609015428282152" free_energy=-24045.281545314436 pbc="T T T"
C        8.68866977       9.14235727       4.02454974       0.80445807      -0.05728412       0.72923366      -1.13140562      -0.36797851      -1.00102408
C        9.89624642       9.10782521       3.07148299      -0.23661934       0.26606847      -0.45230437       0.18984155       0.10227504       0.31283201
O       10.79017131      10.09450984       3.67816921       0.33737445      -0.15473552       0.35803379      -0.24595097       0.04166553      -0.17424967
C       10.00654637      10.96846094       4.36996086      -0.58273111      -0.51138998      -0.57516599       0.22766960       0.15853873       0.19025028
O       10.42313878      11.99870567       4.85826261       0.09786519      -0.25507324      -0.38806071      -0.09954512      -0.24840277      -0.07801273
O        8.72812334      10.52078204       4.49420464      -0.17574228      -0.70287500       0.36622384      -0.13078730      -0.24347965       0.15144668
H        8.77284392       8.41174085       4.85702006      -0.01100858      -0.23273532      -0.19442927      -0.11652187       0.30103997       0.22909770
H        7.68033945       8.95359556       3.51600221      -0.14686894      -0.10052603      -0.27562786       1.29999851       0.43183590       0.80429663
H        9.68890962       9.46018445       2.05326549      -0.18211851       0.17089836       0.11097834       0.06684468      -0.17689829      -0.10854085
H       10.42227411       8.15011446       3.08663490       0.09913581       0.11442568      -0.02319874      -0.08009853       0.01072792      -0.02826756
C        5.83076095      10.66459586      -0.33178758       0.22898397       0.15774026      -0.53971454       0.52746849       0.10665880       0.06878257
C        5.52550086      12.06324587      -0.90424348       1.56599536       0.71408194      -0.57739175      -1.12348954      -0.34596737       0.17722680
O        6.34776260      12.93752199      -0.14211219      -0.80107352      -0.74260537       0.01032158       0.28349613       0.51486834      -0.16929220
C        6.87092589      12.27564345       0.91224683      -0.18553853       0.42116132      -0.90095119       0.25866530       0.01460163       0.75019262
O        7.58753296      12.79652138       1.75339432       0.58029211       0.98538652      -0.93348939      -0.31641994      -0.24723493      -0.36720958
O        6.47618434      10.97206446       0.93845445      -0.46551533       0.53797651       1.20242606       0.01584877       0.05084495      -0.48383050
H        6.51641711      10.04563507      -0.94236516      -0.01033602      -0.24737809       0.10125824      -0.04779243       0.20634290       0.05506652
H        4.91381630      10.11760552      -0.12350738       0.11443104       0.11400973      -0.04565284      -0.37735992      -0.25353360       0.12178785
H        4.45130860      12.27887401      -0.65076096      -0.06214957       0.01168303       0.27597252       0.92900094      -0.19897840      -0.48243138
H        5.70317000      12.19366449      -1.98417201       0.00304237       0.02641284      -0.09461944      -0.00597885       0.02282805       0.18555115
C        1.39318539       1.61518426      12.25054450       0.18168432       0.50416275      -0.80486444      -0.12794530      -0.10603708       0.49351576
C        2.26109925       2.84711471      12.55071015       0.51587679       0.58466816       1.04954697      -0.88780655       0.05262726      -0.41688532
O        2.22544475       3.60271928      11.30364623       0.95438438      -0.03297169      -0.14300957       0.21753527       0.05381175       0.14656211
C        1.64813466       2.84953083      10.32881502      -0.52854524       0.35473620       0.55019901       0.04134283       0.05293932      -0.12104933
O        1.55017112       3.20139285       9.17030182      -0.78425704      -0.52419239       0.20902376       0.13610320       0.00255213       0.23890111
O        1.19787786       1.65838577      10.81635010      -1.23332788       1.05414625       0.06997320       0.06709788      -0.15283645       0.08754117
H        0.40847261       1.64427600      12.75423801      -0.01324002      -0.14725937       0.00203899       0.18049053       0.13959597      -0.17040428
H        1.88807360       0.67671584      12.56754405      -0.10892157      -0.01334840       0.18571503      -0.02353807       0.24109014      -0.31282530
H        3.26600976       2.55967790      12.77674201      -0.19333584       0.10005765       0.13452408       0.93001758      -0.25436948       0.08287250
H        1.88840699       3.46691262      13.37025507       0.03401470      -0.03410146       0.12226199      -0.24732882       0.22402381      -0.08489841
C        3.54484886       2.94020936       3.41339679       0.19909954      -0.83521883       0.09721638       0.13561875       0.37250108       0.11694465
C        2.69853293       1.91228353       4.17972498       0.09528010       0.07963293       0.23435566       0.69466726      -0.60787844       0.03133873
O        2.67898337       0.76347189       3.30344074       0.48939815       0.00544279      -0.12561629      -0.07236351      -0.12063059      -0.10457537
C        3.23684122       1.07314277       2.10469502       0.31551353      -0.78592897       0.14293689      -0.13931275       0.50400949      -0.02070391
O        3.23385330       0.35042684       1.13980656       1.36928706      -0.57442699       0.07453288       0.07945524      -0.04828284      -0.04453828
O        3.75885097       2.34003283       2.12021469      -0.45367427       0.73634483      -0.20432435      -0.13784878      -0.18162599       0.10669102
H        4.51782996       3.07140387       3.94147260       0.21630030      -0.21952553      -0.13607812      -0.56421015       0.09707126      -0.14133132
H        3.04200814       3.92801117       3.28965991      -0.26414945      -0.00929256       0.34671169       0.49566433      -0.56218035       0.02541826
H        1.67851691       2.21933019       4.36272860       0.13789475       0.07400721      -0.31360978      -0.40519273       0.19151316       0.27585376
H        3.21089553       1.59953765       5.11394847       0.05804634      -0.46075298      -0.05688924      -0.28221629       0.55210135      -0.29393024
C        9.31279239       3.55132278      -0.25912719       0.22102047      -0.36360509      -1.28959048       0.17655225      -0.26988951       0.75532463
C        9.12031977       4.86282927       0.55059994      -0.50493730       0.00504798      -0.06632071       0.11599854       0.39767447      -0.33298756
O        7.70407408       5.09293909       0.61233373       0.04864128       0.97176017      -0.19152404       0.07210762      -0.21108990      -0.32002301
C        7.30706042       6.27169508       1.12386529      -0.25539522       0.37729372      -0.70146487       0.33892784       0.23693102       0.23597305
O        8.00761404       7.11572816       1.64999508       1.15911297      -0.08633852       0.94717873      -0.24613742      -0.34154163      -0.30079682
O        5.96683947       6.30165664       0.95006278       0.26329161       0.18362668       0.70186246      -0.03556036       0.07048816       0.03335859
C        5.24503384       7.39083903       1.55825396      -0.28709039      -0.15330216      -1.08511810      -0.80012245       0.29313011       0.61119438
H       10.39573463       3.24212458      -0.21398672       0.11927025      -0.10455079       0.14644913      -0.58838138       0.35210904       0.00014937
H        8.99172173       3.61790171      -1.30246462       0.01043745      -0.28990860      -0.00850162      -0.05768178       0.00123317      -0.28843105
H        8.71691698       2.74524510       0.25551416      -0.08359582       0.02852558       0.14821790       0.27483888       0.35352992      -0.33735644
H        9.61163510       5.80482053       0.17805203      -0.00710684       0.19468723       0.12007113      -0.33330722      -0.59854362       0.24955512
H        9.47832192       4.67064058       1.57141989      -0.18980863      -0.25659182      -0.07480698       0.29662787      -0.10729315       0.17884171
H        5.89137098       8.23113097       1.86058247      -0.05703248      -0.08266001       0.21974342      -0.04892523       0.00977839      -0.08497052
H        4.72294630       7.04175209       2.50331402      -0.33228736       0.21259415       0.12336356       0.33636201       0.17596470      -0.81034112
H        4.48901722       7.74083460       0.81259894      -0.06534069       0.07551273      -0.21096483       0.40535650      -0.17980130       0.28442069
C        2.92015020      10.10405227       9.07684821      -0.27726223      -0.79523687      -0.62030351       0.58736169       0.41287038       0.01382864
C        3.66296858       9.75047325      10.35810949       0.23882432      -0.01124765      -0.43564032      -0.73777428      -0.43372553       0.44931354
O        3.13247332      10.53828529      11.48003053       0.87849943      -0.31899445       0.97550224       0.09326186      -0.00278801      -0.34058007
C        2.67975415       9.85932059      12.54186536      -0.17737452       0.25873859      -0.46682018       0.22670807       0.13934586       0.27350053
O        2.40368663       8.67470278      12.65147834      -0.93497800       0.40603849      -0.26718936       0.03762586       0.11268607       0.07340059
O        2.74327357      10.75875080      13.55273940       0.37928698       0.55249075       0.47844907      -0.10634936      -0.15208347      -0.17125272
C        1.88673534      10.45975091      14.67705264       1.05908420      -0.01069512       0.59443543      -0.43660994      -0.58991755       0.04262094
H        1.85660522       9.93858049       9.14085711       0.09073019       0.19556889      -0.28723768      -0.54183358      -0.27291982       0.13104462
H        3.33104546       9.48114658       8.26655399      -0.01062164       0.00406399      -0.03213340       0.04467565      -0.18884654      -0.12232914
H        3.03328928      11.16715835       8.75845591      -0.03092928      -0.04573888      -0.13223388       0.04363056      -0.06731888       0.15097548
H        4.73036309       9.97535504      10.28154571      -0.08150053      -0.22455265       0.08537179       0.52667023       0.15939559      -0.26099145
H        3.54471117       8.68206874      10.64403783      -0.12594429      -0.01652847       0.26828504       0.11711026       0.26518970      -0.28936263
H        0.86958490      10.79710089      14.39034795      -0.03557951      -0.12810705      -0.04097086       0.37001961      -0.05150142       0.22004720
H        2.31490148      11.01479070      15.52490984      -0.00907062      -0.21615410       0.24344902       0.03761010       0.14523081      -0.12811848
H        1.86519095       9.37796959      14.94012833       0.05921265      -0.18147130      -0.01187546       0.04925771       0.51907353      -0.10466690
C        5.46249777      11.23867156       6.78864067      -0.24043313      -0.38497594       0.25442021       0.27479776       0.10107000       0.88276858
C        4.25550949      12.09645698       6.39378904      -0.34437614       0.32213052       0.38606364       0.22488634       0.20547439      -0.27966279
O        3.18581632      11.15429714       5.99678185       0.28459031       0.57001751       0.31915537       0.13682114      -0.05267625      -0.11028927
C        1.93337488      11.64494446       6.06248310       0.36284006       0.45437984      -0.35195149      -0.11576075      -0.25921730       0.29243836
O        1.60741096      12.78817041       6.27912325      -0.98806247      -0.72031395      -0.01647858      -0.00784946       0.19025827      -0.07849159
O        1.07074857      10.60588701       5.86746957       0.32090504      -0.43077861       1.42201666      -0.15665494       0.19307873      -0.12568369
C       -0.32115011      11.03077088       5.72891841      -0.71073237       0.19938009      -0.20930368       0.51141328      -0.09854867      -0.44398745
H        6.21832241      11.94867804       7.23684382       0.02364718       0.26490123      -0.00386184      -0.46665218      -0.63409106      -0.31808989
H        5.92093598      10.63491479       5.98099314      -0.17745540      -0.12618385       0.01416752      -0.08042994       0.02724567       0.16733268
H        5.18013756      10.52658996       7.63241050       0.10215872      -0.01684184       0.35931949       0.18938208       0.44631543      -0.74518742
H        4.48787480      12.85036125       5.58196560       0.49407872       0.12143901       0.00603775      -0.61688157      -0.52048029       0.69852297
H        3.87914375      12.59786440       7.28985775      -0.32453056      -0.28989020       0.07575032       0.25397403       0.20284425      -0.27068612
H       -0.32913530      11.94526181       5.11182070       0.12173412      -0.11013161      -0.27708300      -0.10569627      -0.05484156       0.20944154
H       -0.74286262      11.18500312       6.72627416      -0.05945586      -0.00858519      -0.10677604      -0.10000980       0.01034498       0.26611038
H       -0.86673126      10.21995247       5.21846585       0.15549454      -0.05765080      -0.13317981      -0.08170427      -0.04216726       0.00042270
C       10.79725209       8.74655228      12.65250190       0.66737768       0.23136171       0.38298356      -0.64413084       0.03228155       1.16100762
C        9.80482012       9.77670041      12.07098798       0.11473066       0.11742568       0.42155849       0.08422553      -0.63740382      -1.02801546
O       10.56102050      10.59880862      11.09055696       1.22574736       0.56458538      -0.82412904      -0.22758193      -0.25796394       0.35033798
C        9.90136843      11.02706848      10.00554450       0.00451740      -0.51001625      -0.32754923      -0.21369993      -0.04087857       0.04778090
O        8.74038660      10.81900026       9.68024895      -1.15928476      -0.71073481       0.38385368       0.47082311       0.09724756       0.03202828
O       10.79842088      11.71536572       9.25988248       0.04624632      -0.75417224       0.01002538      -0.32640532       0.13202355      -0.10503471
C       10.21880081      12.36639494       8.08604463      -0.66216637      -0.25203317      -0.02994307      -0.14463028      -0.59017913      -0.17649924
H       10.26149799       8.02849630      13.36035887      -0.00440626      -0.39992363      -0.03853746       0.28774422       0.83693833      -0.48790158
H       11.57507365       9.28361161      13.25237116      -0.01873878       0.11081565       0.21245781      -0.29048986      -0.22976736      -0.27972748
H       11.27618439       8.14929084      11.91236020      -0.01705146       0.14352774       0.31558847       0.56353930      -0.51540372      -0.84870969
H        9.50803983      10.38606858      12.92307592       0.10655467      -0.16504815      -0.11297313      -0.29910195       0.30360620       0.54895435
H        8.88022297       9.41364026      11.52918114      -0.02484357       0.05715831      -0.28624364       0.68943951       0.10102875       0.56300539
H       10.15342612      11.61755538       7.25584773      -0.03641816      -0.14988977      -0.07615559      -0.03800229       0.45056985       0.49366997
H       10.92963201      13.16671465       7.84416113      -0.10628233      -0.05727192       0.18752943       0.07528974       0.05757380      -0.04143708
H        9.21754463      12.76500584       8.30190773      -0.02666900       0.16476948      -0.12586813       0.15627815      -0.14313328       0.00452710
C        2.29415352       5.94359338       7.42605565      -0.27141904       0.11315249      -0.25341922      -0.04449914      -0.21159138      -0.24455482
C        3.30877078       6.66156276       6.53401304       0.40564607      -0.01801525      -0.24488289       0.19786383      -0.36224299       0.28979879
O        4.30812780       7.29528140       7.41063180      -0.09584715      -0.85064583      -0.03277816      -0.03284434      -0.00677994       0.04230028
C        5.51055235       7.51813912       6.83351846      -0.49533214       0.39119003       0.27759850       0.10019407      -0.10795485      -0.22034213
O        5.80147300       7.34138116       5.67213710       0.59221158      -0.95999611       0.80978474      -0.07716823       0.03473452      -0.05277171
O        6.31486346       7.97197476       7.80827903      -0.18207357      -0.52529377      -1.61379771       0.08922276       0.16434373       0.38061070
C        7.66389159       8.36643272       7.46151722       0.14428526       0.83255128      -0.06752406      -0.28146929      -0.20403625       0.65654971
H        2.72457561       5.11003705       7.99859082       0.01983065       0.03576109       0.01556785      -0.03062755      -0.00547994      -0.04860521
H        1.49505613       5.51729211       6.77659501      -0.22497721       0.17350284      -0.03509744       0.27726836       0.13266811       0.14228018
H        1.81722639       6.60279260       8.16136869       0.04722560      -0.05928309       0.01617319      -0.05402199       0.16053875       0.09845559
H        2.83262643       7.44796728       5.95172157       0.07136805      -0.05638116       0.17557638      -0.27631632       0.38456871      -0.29504478
H        3.84395321       5.99044087       5.84672612       0.09118198       0.16013939      -0.15387705       0.04733922      -0.10331183       0.00794913
H        7.66108850       8.88381484       6.51222525      -0.02373220      -0.03115984       0.15834995       0.11220949       0.37238682      -0.62580222
H        8.36760867       7.50152960       7.37037885      -0.21988923      -0.09809398      -0.14005822       0.02195378       0.19023654      -0.00625462
H        7.91257407       9.03433677       8.31999378      -0.26571766       0.27571227       0.02514521       0.08169520      -0.28419529      -0.34830385
C        9.34503801       3.41260372       8.19384704       0.48342268      -0.84925289      -0.36663982      -0.64838297       1.03610349       0.24684948
C       10.52148139       4.09573941       8.88260368      -0.44030646       0.02250505       0.21819904      -0.34518909       0.15365849      -0.14648008
O       10.28283053       5.54827817       8.87533021       0.10280548       0.39855457      -0.52686989      -0.20292917      -0.15667863       0.12349810
C       11.17582204       6.36577279       8.29088017      -0.04599902       0.32825030       0.02074278       0.07979483      -0.10365035      -0.10344726
O       12.11745547       6.07970473       7.58181498      -0.34938084      -0.86152747       0.54038268      -0.01648766       0.22843486       0.08521024
O       10.78847209       7.62158200       8.65587584       0.54604654       0.92986751      -0.66645500      -0.29051083      -0.41540513       0.03249823
C       11.64178099       8.70117412       8.23514961       0.15022872      -0.57846999       0.59359714      -0.07716507       0.03464601      -0.90174776
H        9.51213498       2.35076115       8.14333966      -0.02797758       0.19805088      -0.10857754       0.19933325      -0.97222128       0.09084251
H        9.18453220       3.80832486       7.17555927      -0.02020042      -0.01708663       0.00371134      -0.11843876       0.10783428      -0.05336786
H        8.40536839       3.59223413       8.78630853      -0.06350998      -0.12938134       0.08322304       0.35511963       0.06170832      -0.14478626
H       11.49739868       3.88316381       8.43371717      -0.11685291      -0.09691498       0.14329622       0.24567210       0.09613223      -0.18813639
H       10.52174666       3.75106388       9.92515667      -0.14348848      -0.08196510      -0.09647714      -0.02916846      -0.02487770       0.33331376
H       11.98703410       8.52574465       7.17889750      -0.33150800       0.05063524      -0.25328222      -0.04296870       0.07924291       0.53973772
H       12.50365380       8.77674334       8.91284233      -0.14242897      -0.16482429       0.07816633       0.34817653       0.05628445       0.14488828
H       11.02519752       9.61156052       8.29533952      -0.03919911      -0.09439127       0.03783858       0.05065269       0.04581690       0.05958844
C       12.07083280       3.44677902       4.53356994       0.08107648       0.79274270       0.02082115      -0.57689265       0.13683796       0.71279244
C       11.49297320       4.24708779       3.37019453       0.32631971      -0.21109557      -0.07408593      -0.42855417       0.74661117       0.13076273
O       12.66674048       4.51806134       2.53046782      -0.06992577       0.64830503       0.26430193       0.08811984      -0.17771571       0.04879365
C       12.52382411       5.35822309       1.52567057       0.33172359       0.41664305       0.99664019      -0.15825009       0.29807268      -0.31051181
O       11.49492069       6.00655492       1.25605712      -0.06165232      -0.41718581      -0.50906970       0.12516920      -0.09807694       0.15046504
O       13.64666960       5.40294309       0.80930996      -0.13746064       0.51964132      -0.34957477      -0.07819731      -0.00651906      -0.05504197
C       13.65436846       6.24356854      -0.36244148      -0.41394682      -0.46022494      -0.57140403       0.44646100       0.94245831       0.46307823
H       12.83839653       3.95849687       5.14272504       0.03775822       0.03633734       0.00139974      -0.08923124       0.01156030       0.01047718
H       12.56289106       2.58309301       4.08569219      -0.04718537       0.13675681       0.23967995       0.27905607      -0.45507494      -0.12730728
H       11.24081189       3.09217033       5.20714248      -0.24229525       0.01812744      -0.04738786       0.56049457       0.19878796      -0.42952599
H       11.00002666       5.24705122       3.60309462       0.27333968       0.33964819       0.24224599       0.29001822      -1.04838498      -0.45635212
H       10.76087842       3.56022992       2.86168031      -0.02391794      -0.06515367      -0.01231807       0.11134845       0.47498326       0.05460464
H       14.42929671       7.03784672      -0.18065115       0.18046668       0.02273182      -0.02685752      -0.61150664      -0.50015281      -0.18470946
H       12.68951495       6.74507092      -0.56294695       0.05763995       0.09237947      -0.02662221      -0.02421066      -0.08888623       0.06676580
H       13.97703561       5.63069689      -1.20611098      -0.06250295       0.25907758      -0.07413667       0.12541183      -0.39888964      -0.28379630
C        5.17853059       3.83342786       9.14893259       0.13657602       0.03132568       0.26605483      -0.79792322      -0.26785338      -0.35852786
C        4.85202801       2.40363431       8.75736147      -0.02761573       0.21984555       0.53161617      -0.49028420      -0.13201959      -0.75130880
O        5.98630280       1.76592583       8.08485645      -1.21072095      -0.17350740      -0.11835683       0.21611394       0.04472205       0.12332820
C        6.04565328       1.85614238       6.76897715       0.11932399       0.31121695       0.27763105      -0.08363115       0.03133637      -0.15109236
O        5.14169412       2.36187710       6.04983467       0.06011794       0.63155722       0.01966925       0.03709286      -0.10664623       0.03674510
O        7.15302601       1.28830136       6.28111756      -0.66520930       0.11660715       0.24165438       0.08917484       0.17825881      -0.08306474
C        7.65419114       1.93932491       5.07533256       0.53049112       0.44157708       0.22408147       0.16355046      -0.20906799      -0.39608410
H        6.17505729       3.86760705       9.56528889      -0.15209347      -0.24699317      -0.11413328       0.80964117       0.20427794       0.40636338
H        4.43133320       4.12992163       9.91130877      -0.23233316      -0.36386188      -0.04089967       0.03906221       0.01111311       0.11011495
H        5.13646424       4.53498343       8.30145928       0.00263055      -0.10096253      -0.08821841      -0.03417236       0.04344984       0.07927328
H        3.92218666       2.29147734       8.13615581       0.01343467       0.01308302      -0.21394006       0.43245807       0.07419512       0.25368066
H        4.76081761       1.80758069       9.66530593      -0.16931636      -0.14144945      -0.21300836      -0.00482930      -0.12659358       0.34307421
H        8.36288368       2.77832000       5.29313284       0.10761815       0.19765658      -0.20950488      -0.35398778      -0.34328270       0.02627085
H        6.81365855       2.36028939       4.49661467      -0.10233516       0.03506375       0.12404746       0.29467733      -0.07948328       0.02671194
H        8.20787275       1.13601125       4.51521459       0.05510389      -0.26621652       0.05299473      -0.44915399       0.44279920       0.41083826
160
Lattice="13.523357387904857 0.0 0.0 0.0 13.523357387904857 0.0 0.0 0.0 13.523357387904857" Properties=species:S:1:pos:R:3:momenta:R:3:forces:R:3 temperature=500 density=0.795137945301616 energy=-24043.79704038264 virial="-2.277890763975293 5.124713570537074 -2.250503060369476 5.124713570537074 19.077814008311 -1.142575449865462 -2.250503060369476 -1.142575449865462 -2.6609015428282152" free_energy=-24043.79704038264 pbc="T T T"
C        8.72303001       9.10886791       4.03120998       0.45265262      -0.64051207      -0.23723986      -1.98342449      -0.14845955      -0.88022565
C        9.88824938       9.13172483       3.05690768       0.24737558       0.20220869      -0.04409178       0.88513929      -0.74043232      -0.15985987
O       10.79155013      10.08259436       3.68678872      -0.28378430      -0.13750038      -0.12910844      -0.60003697       0.14128478      -0.60562525
C        9.99336791      10.95653851       4.35289969       0.27713812       0.08659498       0.23341653      -0.05271411      -0.97984032       0.40188245
O       10.41530092      11.96737119       4.82769049      -0.23587047      -0.42559567      -0.43925623       0.09722767       1.11034764       0.59623272
O        8.71303513      10.47232638       4.52256031      -0.07198599      -0.65924059       0.53522153       0.78003266       0.36761809      -0.12673856
H        8.75715432       8.38520326       4.87648494       0.06040287       0.17655615       0.10375336       0.21799907       0.17230309      -0.20307130
H        7.73447100       8.97673583       3.48546073      -0.35768818      -0.04405620      -0.08455679       0.91490589      -0.15884762       0.82386690
H        9.61741774       9.48592993       2.04988280       0.08715415      -0.10753155       0.01914580       0.29519924       0.00032596       0.00912290
H       10.46905291       8.19249033       2.98032627      -0.07103852       0.05124273      -0.15901914      -0.41450889       0.22537171       0.23563740
C        5.86398348      10.66806824      -0.35098905       0.38673536      -0.08346935       0.25779198       0.41495485       0.08160202       0.81176686
C        5.59305746      12.06314859      -0.94364063       0.34794007      -0.78179095      -0.47864789      -1.95166997      -0.73356860      -0.00417806
O        6.32665193      12.93698566      -0.14703031       0.31748703       0.96868070      -0.13662590       0.93660061       1.18345570      -0.18278545
C        6.87919799      12.29498096       0.90520616       0.19303574       0.00118370       0.51092506      -0.88210866      -0.60684351      -0.30608894
O        7.60805874      12.84752706       1.67680602       0.35293891       0.89603128      -1.31553872       0.71425433       0.27603419       0.91516191
O        6.44258522      11.00564617       0.97541615      -0.55961141       0.61487010      -0.11119945       0.10839769      -0.06692961      -1.20315922
H        6.56890631      10.01332956      -0.90479288       0.16278475       0.17963569      -0.03396825      -0.00424641       0.39366607       0.17145513
H        4.92568986      10.14724357      -0.14619097       0.15902136       0.05563483      -0.08225645      -0.21537757      -0.16714480      -0.11397129
H        4.51482534      12.29374902      -0.72358661      -0.27746586       0.09819004      -0.31304297       0.78406365      -0.24645986      -0.40357278
H        5.75227685      12.18559963      -2.02906470       0.18543552      -0.08046318      -0.06338826       0.31363820      -0.09660845       0.20610619
C        1.39812817       1.65125696      12.23100470       0.01566042       0.47635670       0.37923138       0.07746377      -0.09717502       0.87768906
C        2.27261256       2.88157274      12.60153705       0.04727814       0.16076304       0.09711237      -1.34773219      -0.17000102      -1.87861331
O        2.29068370       3.59997508      11.30600018       1.13368650      -0.08928759       0.29153313      -0.12825684      -0.18292248      -0.05448130
C        1.61506601       2.88338800      10.35411743      -0.19272006       0.44279498       0.14407568       0.46950069      -0.23565874      -0.26824268
O        1.50846148       3.17483643       9.18800743      -0.54591672      -0.17887774       0.33848413       0.26045107       0.79974363      -0.29582162
O        1.12487820       1.71504824      10.82593879      -1.08847497       0.87789550       0.41846944       0.42762505       0.16367709       0.59684903