160
Lattice="13.52651 0.0 0.0 0.0 13.52651 0.0 0.0 0.0 13.52651" Properties=species:S:1:pos:R:3:forces:R:3 temperature=500 density=0.795137945301616 energy=-24030.82786926951 virial="-2.277890763975293 5.124713570537074 -2.250503060369476 5.124713570537074 19.077814008311 -1.142575449865462 -2.250503060369476 -1.142575449865462 -2.6609015428282152" free_energy=-24030.82786926951 pbc="T T T"
C        8.68644067       9.11600881       3.96096792       0.52245411      -1.96231526       0.83657952
C        9.84885484       8.91856234       3.01152866      -0.30985749       2.16663865      -2.24944458
O       10.66408407      10.08009728       3.42846980       2.27086799       0.46030227      -0.73943479
C       10.01424346      10.92405683       4.28168148       3.87612679       3.53901174       0.07767560
O       10.38980702      12.04276683       4.75782815      -0.63903280      -4.06427597      -1.98122782
O        8.92571111      10.39331715       4.55246868      -5.96225554      -1.02450906       2.09503883
H        8.85427761       8.34653977       4.72548627      -0.12925011       0.29356383       0.08430867
H        7.67870215       8.94212552       3.58854252      -0.30378014       0.70959239      -0.12286152
H        9.61406167       9.06094238       1.90960505       0.01076739       0.20294748       1.26970743
H       10.40878471       7.99123893       2.97725248       0.39386936      -0.43163039       0.96270093
C        5.74230107      10.50688572      -0.21494978      -1.28919487       2.76240479       1.36236666
C        5.37953360      11.93367552      -0.84186293       0.82919981      -1.17873475       2.51491767
O        6.29585997      12.74760622      -0.05828573       1.36808855       0.33821724       0.83538065
C        6.99555928      12.05913391       0.96086917      -2.21875616       2.35481243       1.02648518
O        7.56022344      12.67166838       1.91047075      -1.28002299      -2.46730722      -3.52773553
O        6.59403836      10.76513385       0.94891173       0.75629391       0.39040165      -0.12762878
H        6.22652308       9.91138112      -0.86976812       1.47557398      -1.84053129      -1.76715062
H        4.80316901      10.11293964       0.15270077      -0.14251277      -0.59104285       0.51661464
H        4.33793823      12.14824655      -0.59339447      -0.29169716       0.45335701       0.40115504
H        5.47618052      12.10213469      -1.89845920       0.78510811      -0.22283561      -0.78855690
C        1.32851970       1.42104779      12.23271284      -0.63431061       2.54715978      -0.26029824
C        2.13260309       2.72177052      12.57080796       1.60221474      -1.22426324       1.39579207
O        2.15442135       3.39943515      11.30154790       1.83525432       3.20349683       2.28139655
C        1.70939917       2.69980347      10.31441025      -1.78762311      -0.77655416      -2.25663928
O        1.53555646       3.09157179       9.15525597      -0.09603517      -0.69079029       1.86486178
O        1.26679824       1.52073817      10.76595221      -0.95705446      -2.53910165       0.77806299
H        0.40200787       1.47896831      12.82033149      -0.42045207      -0.02184826      -1.16381179
H        1.83362664       0.57512691      12.58234608       0.80072738      -1.48232391      -0.08564267
H        3.16128065       2.27374546      12.80290934      -1.04307758       1.27379584      -0.34771513
H        1.77244623       3.32905673      13.48095270       0.13682757      -0.62489783      -1.91443274
C        3.58855605       2.66100945       3.52964810       0.39416058       0.65009999      -1.00715714
C        2.66035340       1.72340588       4.23632709      -1.58381041       0.57757933       1.38873162
O        2.70988748       0.64101454       3.27318547      -2.24942687      -2.87521805       4.20309826
C        3.28460184       0.95347692       2.16328122      -1.07396219      -1.30358429      -3.13955581
O        3.32606059       0.28549728       1.15739583       0.49150173      -1.42493801      -0.66916632
O        3.56426243       2.19116612       2.14069195       2.06283309       4.83063691       0.69828813
H        4.57328597       2.51846709       3.95831673       0.48926492       0.76917178      -0.16901942
H        3.25547926       3.68937589       3.47692176       0.20505425       0.38223775       0.05447482
H        1.59769725       2.15011316       4.37121345       1.41368567      -1.17840787      -0.68217353
H        3.04308600       1.48721948       5.28004613      -0.36881134      -0.48852028      -1.07343273
C        9.39126652       3.22054705      -0.12564775      -1.09641128      -0.73325938      -1.03784208
C        9.00396196       4.51848333       0.55062364       3.30621885       1.09502927      -0.38183645
O        7.69214749       4.93965827       0.35853367      -5.15228030      -1.41153584      -0.99182087
C        7.11039935       5.97457154       0.99877045       2.93628161       3.03432614       2.45873295
O        7.92069140       6.75003283       1.57871956      -2.63099864      -0.10119645      -0.31211300
O        5.71384130       6.17764505       0.99200719       2.39835978      -2.31090678      -1.44464756
C        5.07391564       7.28316671       1.66787279      -1.77641890       1.59541928       0.98602438
H       10.42419140       3.22553833      -0.45850811       0.65206658      -0.02705021       0.56462575
H        8.93334005       3.08192739      -1.11052647      -0.50279514       0.38792179      -0.19478402
H        9.10004076       2.28589227       0.38914417       0.02424187       0.57639694       0.24135136
H        9.64969049       5.32363530       0.03303174      -1.40842873      -0.95487538       1.12808594
H        9.32080693       4.38244721       1.60730108      -0.18411685       0.94267440      -0.20544212
H        5.81285535       8.01288134       2.00581912       0.50160343      -0.08767411      -0.62356826
H        4.60202981       6.99936699       2.66104326       0.61341733      -0.43302679      -1.19576542
H        4.20137458       7.78578476       1.06468513       2.19430689      -1.24877180       0.70592307
C        2.89791950       9.97019439       9.15148208      -0.06090697       0.46123826      -1.69308632
C        3.68928797       9.59564533      10.42530058      -0.61273197      -1.78104822      -2.09780376
O        3.05076906      10.28709346      11.45645349       0.26883497       2.50043732      -0.64834415
C        2.58022236       9.73031525      12.50922176       0.61434912      -0.67754072       0.54422030
O        2.64049649       8.57386629      12.78236258      -0.14739233      -2.88397634      -0.05101942
O        2.24763253      10.64102812      13.35650881       0.45715453       2.64751626      -0.19633301
C        1.77316314      10.28325193      14.60566849      -0.38657896       1.68914356       2.29988537
H        1.82421219       9.81282698       9.33638946      -0.08261507      -0.25893996       0.04824487
H        3.10668765       9.39211193       8.16729320       0.44172573       0.44767653       2.31318515
H        2.91664019      11.06501658       8.93505791       0.45486531      -0.54550952      -0.20782145
H        4.79462026       9.74220506      10.42233827      -0.47031273       0.48509284       0.01637267
H        3.51549937       8.51934092      10.57620233       0.31161483      -0.44692534       0.01087817
H        0.76229999      10.66579516      14.62129160      -0.67449299      -0.13974216       0.18594444
H        2.28623719      10.85141947      15.42496920      -0.01002273      -0.01659289      -0.72663519
H        1.85099468       9.27387671      14.89835512       0.02936816      -1.80635823      -0.00890052
C        5.55875986      11.11622795       6.85978018      -0.55711068       1.41487810      -1.69033845
C        4.18888961      11.77943274       6.43529124       2.05752910       1.19807910      -0.56315183
O        3.09949155      10.86858461       6.13105298       1.63390751      -1.49069196      -0.38624281
C        1.89998770      11.41363533       6.00397141       0.57134489       4.51686329       2.58033135
O        1.77360951      12.64603565       6.22761873      -0.74586341      -1.17582210      -1.03453539
O        0.93400551      10.54742468       5.95138034      -0.16604080      -2.09998600      -0.58497034
C       -0.43721739      10.97073681       5.82746399       1.29081854       1.23290662      -1.28797505
H        6.07122522      11.84606433       7.52194342       0.17886113       0.00218762      -0.60636910
H        6.19727877      10.80840516       5.98635990      -0.69061250       0.28386817       0.61539070
H        5.50526251      10.29841516       7.49282084      -0.69822448      -1.96896958       1.16631123
H        4.43852136      12.42774484       5.51609725      -1.06544554      -1.01485459       1.64394059
H        3.93377963      12.43257380       7.28973382      -0.63428832      -0.20431450      -0.85871671
H       -0.51587404      11.70622727       5.00221161      -0.01880895       0.15819840       0.21280555
H       -0.80619353      11.36104426       6.75746565      -0.47829430       0.27312329       0.90392494
H       -0.95985468      10.12484298       5.46675254      -0.77443527      -1.30183331       0.14510879
C       10.64175180       8.73443949      12.73297729       1.01260649       0.76557289      -2.63347221
C        9.77817882       9.79214494      12.06566045      -0.38306895      -0.16579591       3.81343164
O       10.52860254      10.46893034      11.10659031       3.64134884       0.04570204       0.96230148
C        9.97789774      10.82647658      10.02448303      -1.83826620       1.71228826      -2.61111960
O        8.78445376      10.72959972       9.86376103      -1.70455797      -0.23976019      -1.03171214
O       10.79673855      11.45558104       9.10687164       1.36102066      -0.14493640       1.36741303
C       10.26501144      12.28696092       8.11708281       0.47967242       1.14412584      -2.07377668
H       10.06020654       7.95260721      13.13355135      -0.87670807      -1.10629258       0.87645080
H       11.27132968       9.19290702      13.48804061       0.51186630      -0.01799469       0.56235975
H       11.28681753       8.37176671      11.88501391       0.16541020      -0.52599925       0.68155076
H        9.64296782      10.47219023      12.96912310      -0.08832427       0.29663269      -0.78509747
H        8.74594379       9.53983495      11.92821757      -0.72041793      -0.33338761      -1.37217260
H       10.06755144      11.72152575       7.23317948       0.62661862      -1.37457348      -1.13678852
H       10.74969335      13.24101272       7.73738014       0.77685183      -1.09618391       1.15369003
H        9.31269102      12.56625630       8.32585095      -2.82316066       0.66597595       1.61046657
C        2.03172238       5.75605078       7.34250074      -0.72505247      -1.15779565      -0.90758520
C        3.26830240       6.33644627       6.70597023      -0.47130113       1.16923028      -0.13107139
O        4.21933779       6.74822029       7.68938809       1.97608568       1.62662975       2.59844209
C        5.37870849       7.30921876       7.23656111       0.06271875       0.33126484      -4.59522571
O        5.56954049       7.38242423       5.97904206      -0.18819132      -0.38705848       2.30904862
O        6.27370355       7.87231384       8.06903664      -1.39392227      -0.49032242       0.99581098
C        7.58052673       8.19190469       7.52316081      -0.84450556      -0.28784846      -0.50035646
H        2.27417154       4.93002739       7.97815202       0.68715642      -0.28160037       0.22627120
H        1.24763117       5.44618548       6.59632434       0.64544469      -0.02992651      -0.06232259
H        1.43832791       6.40096773       7.96446319      -0.04505134       1.11946244       0.72375139
H        2.92063051       7.24131569       6.19623723       0.10697581       0.24027871      -0.47998717
H        3.84518099       5.74301123       6.03305341      -0.05688077      -0.79844146      -1.02512648
H        7.56809587       8.72430814       6.57073218      -0.44451626       0.02717263      -0.65145799
H        8.17231154       7.29450191       7.43476506       0.23824148      -0.86999763      -0.26241107
H        8.02633345       8.80852419       8.25035951       0.73632858       1.19056267       1.54381439
C        9.50852783       3.26376425       8.17163522      -1.01095662       0.90921227       0.02245081
C       10.64464646       3.87264658       9.00259578       1.16940456      -1.50438702      -0.72364763
O       10.40676926       5.27435823       9.04140334      -2.29599731       0.23129209       3.46838448
C       10.99935213       6.14397756       8.31616598       1.85635294       0.60520032      -1.81658575
O       11.72833634       5.83332773       7.40284250       1.21086648      -0.05951758      -1.20599136
O       10.75234453       7.42572260       8.64783601      -1.65285320      -0.02898758       1.31353984
C       11.55956607       8.46900879       8.18516173       3.83293214       0.39049926      -1.23375004
H        9.77463488       2.31045641       7.76036169       0.22411672      -0.82505526       0.08001845
H        9.38231197       3.96373409       7.31750375      -0.42765904      -0.49220189       0.03443665
H        8.51872546       3.17860134       8.75641330       1.42488518       0.40920476      -0.78889666
H       11.70563885       3.67513247       8.62957522      -1.31605942       0.04767009      -0.08609676
H       10.60863889       3.39126514      10.00365221      -0.08485965       1.01406050       0.11825185
H       12.39894012       8.14219478       7.46901419      -1.92707712       0.29106247      -0.29778138
H       12.35221956       8.64758576       8.92518357      -0.55507339      -0.04044572       0.99752908
H       11.12103662       9.46189519       7.99108337      -0.77495774      -0.76644886       0.00438628
C       11.94431413       3.14129524       4.62257658       0.65493612       1.56431658      -1.56335669
C       11.49190648       4.15955739       3.53308383      -1.36341700      -0.11669085       0.17838546
O       12.50274257       4.28320320       2.51537627       1.24874319      -0.27893971       0.20452691
C       12.45199111       5.25331097       1.59296297      -0.95687226      -0.71012623       0.03938288
O       11.47549882       5.93422196       1.40195512      -0.10547629       1.03294793       0.02989422
O       13.53090612       5.20395274       0.78342841      -0.51318441      -1.95868222       3.79584776
C       13.61895018       6.12390421      -0.21968405       1.62748880      -1.05629107      -1.94382682
H       12.65440180       3.78745661       5.14774333       0.59894119      -0.38100758       0.57492337
H       12.38283006       2.18666180       4.23911355      -0.15047511       0.51771092       0.31121433
H       11.10261352       2.93478601       5.24472841      -0.73164045      -0.37411261       0.42346716
H       10.97227207       5.09787786       3.87044852       1.18841428      -0.34540034       0.10025218
H       10.59495007       3.75392440       3.11182773      -0.37876994      -0.66605861      -0.73088512
H       14.48636468       6.73660101      -0.09511842       0.70931154       1.36822393      -0.00628266
H       12.72632225       6.57447226      -0.56741004      -1.45240610       0.73663044      -0.08833506
H       13.97442686       5.40679628      -0.96899860       0.00594488       0.69366135      -1.36790314
C        5.17591905       3.68937589       9.18846356       1.10186727       2.00553959      -1.84662965
C        4.60350420       2.27935897       8.83772115       1.51653615       0.44358740      -2.01262970
O        5.64768314       1.51281165       8.18936848       3.20627804      -0.38930175      -1.80456883
C        6.02688532       1.70749870       6.86957337      -1.09915905       0.20701651       0.78769031
O        5.19204265       2.18356423       6.12607522      -0.39583674       0.97131729      -0.49320548
O        7.24789632       1.28672955       6.40194839      -0.63141829      -0.41607142       1.30090810
C        7.67426545       1.72692277       5.07747311      -1.31257555       3.01427313      -0.48804621
H        6.31888209       3.88809386       9.31394899      -1.77415025      -1.26952636      -0.40012544
H        4.81610036       4.10031127      10.11846523      -0.68018426      -0.19797356       0.24677886
H        4.90340045       4.37960664       8.27628983       0.67455890      -2.23274900       2.07812190
H        3.72425400       2.35773156       8.22444272       0.02752843       0.24449624      -0.87904948
H        4.31579533       1.57547997       9.55785902      -0.38179835      -0.15149732       2.12055580
H        8.43563211       2.48901987       5.18207361       0.53093794       0.81712832       1.33481450
H        6.88180133       2.29891829       4.53748131      -0.65239811      -0.75680910       1.35101143
H        8.19051823       1.16875134       4.36369271       0.54059662      -2.83712624      -0.62007418
160
Lattice="13.52651 0.0 0.0 0.0 13.52651 0.0 0.0 0.0 13.52651" Properties=species:S:1:pos:R:3:forces:R:3 temperature=500 density=0.795137945301616 energy=-24037.24047126119 virial="-2.277890763975293 5.124713570537074 -2.250503060369476 5.124713570537074 19.077814008311 -1.142575449865462 -2.250503060369476 -1.142575449865462 -2.6609015428282152" free_energy=-24037.24047126119 pbc="T T T"
C        8.69390430       9.08797573       3.97291906      -0.28324961       0.34570072       0.24855159
C        9.84442830       8.94951432       2.97939374       0.93941178       0.63526993       0.17874928
O       10.69652504      10.08667303       3.41790645       0.83261225       0.80176907      -0.07579924
C       10.06961670      10.97461414       4.28279113      -3.08941621      -5.67471406      -1.66804308
O       10.38067798      11.98470574       4.72952490       1.58637408       2.25401345       0.78451824
O        8.84053603      10.37868131       4.58239781       0.21594025       0.53966860      -0.12685916
H        8.85243118       8.35073354       4.72669068       0.04049585      -0.49939761       0.67335791
H        7.67436243       8.95226255       3.58678736       0.08039232       0.25675176      -0.08108088
H        9.61421549       9.06384163       1.92774373      -0.31838540       0.58343797      -0.31630963
H       10.41441142       7.98507278       2.99100535      -0.13948409       0.65978964       0.66186152
C        5.72388400      10.54634865      -0.19548740       0.57965222      -0.54859172      -0.30307726
C        5.39137931      11.91683645      -0.80593553       0.31687455       0.36340788       0.54604514
O        6.31540409      12.75243789      -0.04635172       0.12479010       0.52787872      -0.23586556
C        6.96386276      12.09277409       0.97553324      -2.66165630      -0.70927903      -1.27973449
O        7.54193740      12.63642113       1.86007453       0.89466557       0.15635275       0.27355780
O        6.60484256      10.77071102       0.94708846      -0.09867234       0.63189892      -0.61231141
H        6.24760271       9.88508782      -0.89501313      -0.09236012       0.11055326       0.28542490
H        4.80113311      10.10449617       0.16008098       0.09914042      -0.39662618       0.56881077
H        4.33377113      12.15472308      -0.58766368       0.27226465       0.31458227       0.30822093
H        5.48739635      12.09895132      -1.90972430       0.62489053      -0.47636218       0.90134880
C        1.31945812       1.45743579      12.22899429       0.55862275      -0.09556601       0.45280738
C        2.15549187       2.70428105      12.59074785       0.09703234       0.22189468      -0.38688419
O        2.18063927       3.44519939      11.33413928       0.12929112      -0.15746889      -0.29417688
C        1.68386170       2.68870984      10.28217255      -0.07166030      -0.44178350       3.73677419
O        1.53418453       3.08170336       9.18189685      -0.68315569       0.03367659      -1.05868368
O        1.25312603       1.48446529      10.77706740      -0.19235138      -0.18883711       0.25824110
H        0.39600141       1.47865619      12.80370561      -0.68285141       0.07982113      -0.94337339
H        1.84506560       0.55395085      12.58112261      -0.24886978       0.04250823      -0.54301472
H        3.14637954       2.29194254      12.79794198       0.38157481       0.53044783       0.09907548
H        1.77440091       3.32012962      13.45360366       0.14042326      -0.39859009      -1.04649700
C        3.59418692       2.67029659       3.51526014       0.20372062       0.51923297      -0.04374367
C        2.63772754       1.73165701       4.25616611       0.27642309      -0.20073912      -0.28390189
O        2.67775281       0.59994000       3.33322973       0.15660858      -0.54832942      -0.51356362
C        3.26925952       0.93485429       2.11843042      -1.67330111       1.64626850       1.74577342
O        3.33308204       0.26514102       1.14783631       0.47151276      -1.16289818      -0.78962378
O        3.59373147       2.26017522       2.15066749       0.28196045      -0.84112928      -0.02755111
H        4.58027547       2.52945526       3.95590217       0.23237129       0.65000275      -0.14039823
H        3.25840861       3.69483643       3.47769997       0.14856451       0.69151328       0.31747628
H        1.61789276       2.13327876       4.36146811      -0.09426299      -0.42027283      -0.32649765
H        3.03781727       1.48024062       5.26471138      -0.25129535      -0.36999390      -0.30990784
C        9.37560350       3.21007192      -0.14047407      -0.15808774       0.05520951      -0.65485533
C        9.05119366       4.53412661       0.54516883      -0.82947133      -0.06810285      -0.36296399
O        7.61854349       4.91949347       0.34436480      -0.82244062      -0.92746134       0.34818530
C        7.15234623       6.01791906       1.03389521      -1.68166727      -1.99011746      -1.46981876
O        7.88310571       6.74858717       1.57426080       1.57973625       3.06700862       2.16791999
O        5.74810358       6.14463210       0.97136937       0.24193793       0.49121713       0.24225443
C        5.04853823       7.30595841       1.68195885       1.07836657      -0.85647043      -0.23963179
H       10.43350664       3.22515190      -0.45044203       0.18199839      -0.17794729       0.62081520
H        8.92615726       3.08746913      -1.11330910      -0.62870177       0.22072808      -0.66203999
H        9.10038707       2.29412651       0.39259205      -0.05330224       0.32738694       0.34462839
H        9.62957008       5.30999422       0.04914725      -0.30689828       0.42804064       0.27460950
H        9.31817669       4.39591399       1.60436619       0.08691077       0.83894532       0.09233963
H        5.82002111       8.01162885       1.99691100       0.35028459       0.02027394      -0.55104327
H        4.61079291       6.99318089       2.64396090       0.09865001      -0.58714895      -0.26981990
H        4.23272182       7.76794516       1.07476975       0.89999171      -0.48336240      -0.05708256
C        2.89704940       9.97678351       9.12729513      -0.26205688       0.12848887      -0.10230621
C        3.68053466       9.57020178      10.39533195      -0.34412074      -0.37272169      -1.10056657
O        3.05460956      10.32281399      11.44719143       0.04557952       0.82685889      -0.18258138
C        2.58899878       9.72063610      12.51699634       0.79739237      -0.62936554       0.48072379
O        2.63839089       8.53266663      12.78163373      -0.35491523      -0.44686629      -0.46973538
O        2.25416331      10.67884978      13.35370405       0.37393477       1.04212392       0.11381788
C        1.76764058      10.30738255      14.63852400      -0.21080450      -0.27635919       0.41356704
H        1.82303197       9.80912784       9.33707867      -0.03029537      -0.15255516      -0.10723111
H        3.11299802       9.39850731       8.20033870       0.55897698      -0.11655619       0.88144117
H        2.92313827      11.05722359       8.93208903       0.36911125       0.01089077      -0.32152899
H        4.78790151       9.74913496      10.42257217      -0.54751112       0.31526642      -0.28542306
H        3.51995101       8.51295627      10.57635773       0.06518482      -0.82707157      -0.01143677
H        0.75266438      10.66379884      14.62394795      -0.77302992      -0.02366632       0.32893246
H        2.28609401      10.85118243      15.41458870       0.42144709       0.59421922       0.23119600
H        1.85141423       9.24807159      14.89822797      -0.09338013      -0.35855669      -0.17589535
C        5.55080114      11.13644049       6.83563249      -0.16685588      -0.32375894       0.40547626
C        4.21828288      11.79654816       6.42724621       0.61469743      -0.24238173       0.20406116
O        3.12283309      10.84728901       6.12553523       0.78850947       0.26781352      -0.06339453
C        1.90814977      11.47816195       6.04083329       0.72665325      -2.78270805       1.06396629
O        1.76295432      12.62923819       6.21283965      -1.07572210       3.12813930      -0.11426649
O        0.93163350      10.51742488       5.94302362       0.82117619      -0.02659922      -0.35550658
C       -0.41877713      10.98834976       5.80906435       0.16629329      -0.33478341       0.03789564
H        6.07378038      11.84609558       7.51328100       0.11027039       0.03073006      -0.62871296
H        6.18741288      10.81246042       5.99515120      -0.35854287       0.10530117       0.09398893
H        5.49528787      10.27028702       7.50948243      -0.57348623      -0.27526469      -0.08454234
H        4.42330071      12.41324692       5.53958212      -0.57849478       0.03028546       0.27622969
H        3.92471837      12.42965502       7.27746644      -0.43341786      -0.03829712      -0.62885626
H       -0.51614274      11.70848725       5.00525169       0.02170667       0.58010400      -0.37773962
H       -0.81302631      11.36494602       6.77037886       0.03425335      -0.02671053      -0.01905934
H       -0.97091804      10.10624536       5.46882552      -0.25525281      -0.20032578       0.39022444
C       10.65621761       8.74537625      12.69535626       0.07042193      -0.62008668       0.24363915
C        9.77270641       9.78977643      12.12013804      -0.04553084       0.57421478       0.62704732
O       10.58062181      10.46958323      11.12033747       0.79062445       0.27399678      -0.56346750
C        9.95163679      10.85093784       9.98718132      -0.09195892       0.59516605       0.43093265
O        8.76010293      10.72617457       9.84902229      -1.11312982      -0.17618904      -0.97102410
O       10.81618170      11.45351052       9.12640611       0.59938499       0.61451994       0.05186812
C       10.27186390      12.30330557       8.08745743      -1.33332568      -0.36202701      -0.43449638
H       10.04768214       7.93680303      13.14607208       0.06411719       0.14909837       0.11396833
H       11.27864206       9.19264995      13.49607432       0.13931739      -0.31919362      -0.07259988
H       11.28918053       8.36425243      11.89475035       0.65389791      -0.79838985      -0.01359831
H        9.64170604      10.47642784      12.95790742      -0.28577716       0.89204976       0.36753017
H        8.73565211       9.53507227      11.90861510      -0.14187824      -0.41809729      -0.93788970
H       10.07650313      11.70188899       7.21693964       0.59246509      -0.91485175      -0.94135550
H       10.76079123      13.22535295       7.75386143       1.12214592      -0.16553860       0.68344608
H        9.27236015      12.57577024       8.34885762      -0.93441110       0.29859768       0.85714791
C        2.02136449       5.73951084       7.32953524      -0.12789048      -0.03596315       0.30171096
C        3.26156953       6.35314956       6.70409778       0.24117161       0.25304637       0.43555208
O        4.24756759       6.77145786       7.72650869       0.20204189       0.81304608       0.41429838
C        5.37960447       7.31395111       7.17091503      -0.43665899       0.27832276       2.30685862
O        5.56685204       7.37689482       6.01202847       0.79573499      -0.00767900      -3.22579933
O        6.25379037       7.86530923       8.08326251      -0.12825588      -0.24525746      -0.28404994
C        7.56846236       8.18779257       7.51601286      -0.30509563       0.16276098       0.79734430
H        2.28398806       4.92600453       7.98138447       0.57110301      -0.07852319      -0.01505241
H        1.25685181       5.44575796       6.59543402       0.19056058      -0.24177097      -0.41832123
H        1.43768432       6.41696005       7.97480250       0.32456552       0.41489509       0.17183076
H        2.92215874       7.24474824       6.18938027       0.06987736       0.46213105      -0.38564648
H        3.84436841       5.73160492       6.01840875      -0.51202546      -0.34618204      -0.32298544
H        7.56174564       8.72469632       6.56142564      -0.41156666      -0.03171305      -0.36364637
H        8.17571499       7.28207337       7.43101633      -0.17048593      -0.40267286      -0.18718655
H        8.03685243       8.82553223       8.27241400       0.07081051       0.33414894       0.54521329
C        9.49408559       3.27675300       8.17195595       0.41172235      -0.17344937      -0.39003232
C       10.66135224       3.85115534       8.99225796      -0.62217708      -0.17064489       0.07467673
O       10.37396930       5.27766240       9.09095169      -0.26711554       0.73460881       1.11474911